18
-0.00163013 (energy)
C	1.7662013	0.6933323	1.3085487
O	2.6746745	0.2879706	0.5888007
H	1.9984341	1.3736041	2.1469012
C	0.3155328	0.2794293	1.2245875
Cl	-0.0995716	-0.1287657	-0.4634253
H	-0.3021260	1.1407122	1.4986711
C	0.0427059	-0.9155347	2.1432017
H	0.6800094	-1.7679750	1.8787940
H	-0.9974483	-1.2371728	2.0127298
N	0.2361801	-0.6113316	3.5691339
H	1.2283548	-0.6861246	3.8045247
H	-0.2107648	-1.3468854	4.1221452
O	5.7756494	3.4195782	-1.2788151
H	5.0619912	3.8686253	-0.7945545
C	5.2864509	2.1448930	-1.6531884
H	6.0667211	1.6117776	-2.2014454
H	4.4099274	2.2640305	-2.2947598
H	5.0213222	1.5778822	-0.7574562
