18
-0.00455401 (energy)
C	0.3750522	2.7474109	1.3126265
O	0.0395900	3.8693814	0.9434028
H	1.4227802	2.4228818	1.1842381
C	-0.5437117	1.6841897	1.8678180
Cl	-1.9083034	2.4526708	2.7255174
H	0.0114922	1.1092452	2.6158954
C	-1.0623977	0.7810207	0.7446635
H	-1.5981871	1.3649963	-0.0133760
H	-1.7772073	0.0629790	1.1640181
N	-0.0012032	0.0109967	0.0781925
H	0.4519362	0.5928144	-0.6300209
H	-0.4352188	-0.7456060	-0.4564133
O	0.9516982	-3.3301847	-1.1301207
H	1.4091890	-3.1040225	-0.3024660
C	1.5950609	-4.4735837	-1.6621135
H	1.1036659	-4.7554296	-2.5963046
H	1.5202999	-5.2991767	-0.9501388
H	2.6447007	-4.2430675	-1.8602277
