11
-0.00242303 (energy)
C	-0.2668197	-0.6780899	-1.1768484
H	0.4060264	-1.5058984	-1.3668257
C	-1.2655823	-0.3276569	-1.9877592
H	-1.4453304	-0.8829652	-2.9031264
H	-1.9234333	0.5060854	-1.7716838
O	0.0371496	-0.0434321	-0.0076584
H	-0.5895902	0.6892990	0.1215443
C	3.8269205	-0.0944131	0.2098570
H	3.9147992	0.7449288	-0.4983195
H	2.9160699	-0.0993556	0.8296010
O	4.6844316	-0.9638503	0.3020120
