11
-0.00222262 (energy)
C	-0.4468545	0.8354184	1.0501211
H	-1.4348306	0.7767008	1.4911831
C	-0.0241691	0.0485569	0.0601249
H	-0.6829872	-0.7083803	-0.3540956
H	0.9707641	0.1302218	-0.3618010
O	0.3054901	1.8125513	1.6343999
H	1.1801803	1.8290472	1.2089167
C	4.5929806	-0.2788435	-1.4462961
H	5.4598010	0.3830978	-1.6018194
H	4.3528022	-0.9516080	-2.2850202
O	3.9400231	-0.2675795	-0.4103142
