11
-0.00306936 (energy)
C	-0.7085385	1.1775120	0.1655581
H	-0.3388785	1.9987664	-0.4369141
C	-1.7477263	1.2704367	0.9958353
H	-2.2800488	2.2108181	1.1001869
H	-2.0955345	0.4310701	1.5866617
O	0.0216798	0.0419463	-0.0330996
H	-0.3440740	-0.6657183	0.5253142
C	3.4135093	-0.0662224	-0.0819912
H	2.8959243	0.8939583	0.0725732
H	2.8520153	-0.9630636	0.2248576
O	4.5378877	-0.1322376	-0.5627760
