11
-0.00472698 (energy)
C	-1.3605203	0.0828038	-0.2410367
H	-1.9331169	-0.7230653	0.2025714
C	-1.8962153	1.0723733	-0.9563614
H	-2.9681449	1.1049814	-1.1251145
H	-1.2979199	1.8660189	-1.3885096
O	-0.0280267	-0.0439591	0.0246412
H	0.4448034	0.6976630	-0.3910743
C	3.4848289	-0.0127650	-0.1267109
H	2.8048141	-0.3869896	0.6551248
H	4.5477481	0.0462292	0.1569764
O	3.0858657	0.3157007	-1.2369710
