11
-0.00315619 (energy)
C	-1.1609172	-0.1306801	-0.7424048
H	-1.5530057	-1.1405037	-0.7669579
C	-1.7278651	0.9047161	-1.3624299
H	-2.6387852	0.7646953	-1.9361829
H	-1.3126233	1.9049032	-1.3202066
O	-0.0186736	-0.0545552	0.0003453
H	0.2963636	0.8658299	-0.0054804
C	3.6786664	0.1444547	0.3053325
H	2.7715907	-0.4354683	0.0715926
H	4.6104906	-0.2276948	-0.1496007
O	3.6528948	1.1364996	1.0229129
