11
-0.00378079 (energy)
C	0.0628148	-0.0011109	-0.0556862
H	-0.7479251	0.0132275	0.6630456
C	0.4392320	1.0556463	-0.7764364
H	-0.0752690	2.0047905	-0.6624725
H	1.2548577	1.0117062	-1.4887612
O	0.6462516	-1.2325735	-0.1284496
H	1.3653035	-1.1988330	-0.7828324
C	3.8778762	-2.3305041	1.2766822
H	3.3487696	-3.2377694	0.9440456
H	4.5633349	-2.4660051	2.1284696
O	3.7149729	-1.2439548	0.7357458
