11
-0.00344429 (energy)
C	-0.6581001	-1.0481427	0.6198965
H	-0.7125974	-0.9538997	1.6979635
C	-1.1704586	-2.0702391	-0.0661897
H	-1.6803287	-2.8752723	0.4539333
H	-1.1007076	-2.1378988	-1.1456060
O	-0.0014735	0.0074887	0.0571562
H	0.0233854	-0.1188515	-0.9071109
C	2.8886098	0.5295778	-0.5964140
H	2.6987607	0.7716804	0.4614494
H	3.5286290	-0.3492129	-0.7749024
O	2.4195465	1.1929835	-1.5127171
