11
-0.00330465 (energy)
C	1.2576999	-0.6444540	-0.0568091
H	1.5225949	-1.5078931	0.5418423
C	0.0724759	-0.0358496	-0.0043538
H	-0.6984232	-0.4001726	0.6676262
H	-0.1645355	0.8270281	-0.6157867
O	2.2868638	-0.2616222	-0.8670279
H	2.0055057	0.5132461	-1.3835621
C	5.6020491	-0.3511638	-0.4184994
H	5.0967124	-0.8452881	0.4266084
H	5.0029670	0.4013570	-0.9556856
O	6.7528326	-0.6203951	-0.7393587
