11
-0.00587974 (energy)
C	0.0819989	-0.0169162	0.0061570
H	-0.9763465	0.2014187	-0.0733100
C	0.5733765	-1.1817010	0.4301039
H	-0.0982568	-1.9831891	0.7218219
H	1.6381025	-1.3718368	0.4993106
O	0.8436207	1.0471064	-0.3811167
H	1.7822908	0.8070041	-0.2937082
C	5.0853429	2.4855892	-0.3861126
H	4.5644596	3.3819365	-0.7589041
H	6.1584478	2.6144330	-0.1725687
O	4.5099520	1.4173533	-0.2201721
