11
-0.00310745 (energy)
C	0.0628148	0.0487811	-0.0268810
H	-0.7479246	-0.5808287	0.3200676
C	0.4392318	0.1445906	-1.3024347
H	-0.0752691	-0.4286772	-2.0674358
H	1.2548609	0.7834480	-1.6205433
O	0.6462503	0.7275289	1.0032148
H	1.3653245	1.2773447	0.6468078
C	4.0128162	0.3520771	2.6207973
H	3.2071180	0.3453974	3.3721541
H	5.0226176	0.5597442	3.0092962
O	3.8001611	0.1426516	1.4330862
