11
-0.00299764 (energy)
C	-0.0770537	0.0152870	0.0296127
H	0.9174655	-0.1820198	-0.3525937
C	-0.5387976	-0.4589366	1.1871148
H	0.0923312	-1.0843361	1.8109142
H	-1.5393137	-0.2447386	1.5444234
O	-0.7927438	0.8070335	-0.8207508
H	-1.6748111	0.9572930	-0.4389519
C	3.7346690	1.1736829	-2.0899598
H	4.7444560	1.2643257	-2.5210577
H	2.9289555	1.6617627	-2.6612389
O	3.5220118	0.5706665	-1.0455045
