11
-0.00225513 (energy)
C	-0.0659500	0.0295019	-0.0427565
H	0.7852552	-0.3512740	0.5090945
C	-0.9777135	-0.7432721	-0.6338691
H	-0.8941644	-1.8243176	-0.5797028
H	-1.8197121	-0.3338461	-1.1797550
O	-0.0853301	1.3939284	-0.0553198
H	-0.8628425	1.6901591	-0.5594158
C	3.2199575	0.7253524	-1.0096406
H	3.3674685	1.8170168	-0.9941285
H	2.8009785	0.3160669	-1.9427525
O	3.5028192	0.0143128	-0.0535282
