11
0.0141868 (energy)
C	0.2285558	-0.8459588	1.0714881
H	0.2474822	-1.8957104	0.8036383
C	0.4064961	-0.3894110	2.3115719
H	0.5835721	-1.0828525	3.1278786
H	0.3822701	0.6675252	2.5500708
O	0.0005124	-0.0551073	-0.0169710
H	-0.0899230	-0.5345359	-0.7373656
C	2.9539008	0.5785090	-0.3514232
H	3.1135824	-0.4001632	-0.8314584
H	2.6378767	0.5440290	0.7034208
O	3.1168048	1.6342028	-0.9503486
