11
-0.00208247 (energy)
C	-0.0698575	0.0108002	-0.0452898
H	0.8317812	-0.1285963	0.5392582
C	-0.8097202	-0.9894148	-0.5249560
H	-0.5215083	-2.0192661	-0.3381031
H	-1.7078772	-0.8196213	-1.1072504
O	-0.3498179	1.3340054	-0.2267921
H	-1.1635273	1.4111107	-0.7543552
C	3.8875799	0.7499248	-0.9865426
H	3.9986741	1.8415892	-0.8882664
H	4.0882304	0.3406392	-1.9895285
O	3.5627510	0.0388852	-0.0438614
