11
-0.00164045 (energy)
C	-1.3384162	-0.2285822	-0.3959157
H	-1.6203118	-0.7517020	-1.3019845
C	-0.0771272	-0.0123318	-0.0213596
H	0.7432465	-0.3678458	-0.6371279
H	0.1750942	0.5146782	0.8914534
O	-2.4336293	0.1784510	0.3090845
H	-2.1342206	0.6412388	1.1106909
C	4.6468794	-0.3226880	-0.5589123
H	4.8838344	-0.7375723	-1.5516130
H	5.5143485	-0.1087843	0.0856795
O	3.4960963	-0.1132621	-0.1961758
