11
-0.00149437 (energy)
C	-1.2576998	-0.0559622	-0.6445281
H	-1.5225952	-0.7954541	-1.3908942
C	-0.0724758	-0.0019374	-0.0360613
H	0.6984233	-0.7269726	-0.2781611
H	0.1645339	0.7500406	0.7075369
O	-2.2868631	0.8084267	-0.4082068
H	-2.0055169	1.4516473	0.2652191
C	4.3297370	-0.6305708	-1.1604997
H	5.3563843	-0.2325872	-1.1239544
H	4.1491144	-1.4093524	-1.9185437
O	3.4481850	-0.2337988	-0.4087172
