11
-0.00167638 (energy)
C	-0.0765261	0.0272495	-0.0211921
H	0.9111830	-0.3244547	0.2523310
C	-1.1345052	-0.7688610	-0.1786558
H	-1.0375578	-1.8401547	-0.0320109
H	-2.1115326	-0.3884092	-0.4529854
O	-0.0990137	1.3820531	-0.1830389
H	-1.0012195	1.6520676	-0.4269812
C	4.9290182	-0.2432036	0.1184672
H	5.5166685	0.4276917	0.7652268
H	5.5166658	-0.9141111	-0.5283011
O	3.7043799	-0.2432044	0.1184666
