11
-0.00117404 (energy)
C	-1.2979066	-0.1170176	-0.4666007
H	-1.6291286	-1.1418069	-0.5856764
C	-2.0537020	0.9473382	-0.7383109
H	-3.0679534	0.8172777	-1.1029370
H	-1.6952372	1.9619708	-0.6094447
O	-0.0150576	-0.0553991	-0.0054122
H	0.2389757	0.8792243	0.0858951
C	3.5864351	-0.9969562	-0.2177327
H	3.1762922	-2.0193819	-0.2303681
H	4.6664871	-0.9161144	-0.4194953
O	2.8884152	-0.0158333	0.0056619
