11
-0.00513394 (energy)
C	0.0819989	-0.0137903	0.0115714
H	-0.9763465	0.1641982	-0.1377781
C	0.5733765	-0.9633315	0.8083310
H	-0.0982568	-1.6167105	1.3565813
H	1.6381025	-1.1183307	0.9383943
O	0.8436207	0.8536086	-0.7162641
H	1.7822908	0.6578817	-0.5520071
C	5.2328309	-0.8382602	1.5882881
H	5.1459672	-1.7825942	2.1490191
H	6.1657377	-0.2747021	1.7490459
O	4.3512802	-0.4414868	0.8365048
