37
-0.00867806 (energy)
C	-0.4784841	-0.1053964	0.0207869
O	-0.2876593	0.8952162	-0.6707414
O	0.5572254	-0.7927047	0.6289068
H	1.4190194	-0.3719940	0.4164402
N	-2.9618656	0.0602707	0.0261849
C	-4.4732856	1.8810207	0.5014675
H	-5.0141355	1.7782655	-0.4304780
H	-4.8063730	2.6623239	1.1723405
C	-3.4259673	1.0946033	0.8431791
C	-2.7037817	1.2830746	2.1595116
H	-1.6403385	1.5095586	2.0117836
H	-3.1467631	2.1148770	2.7108460
H	-2.7682386	0.3891761	2.7936183
C	-2.6655241	-1.3086997	-1.9016261
C	-3.5539268	-0.2016483	-1.2966965
C	-1.8130969	-0.7892852	0.3060597
C	-2.0176585	-1.9812511	-0.6720755
H	-3.2370945	-2.0148742	-2.5106778
H	-1.8924937	-0.8643398	-2.5380981
H	-4.6001938	-0.5233714	-1.1836941
H	-3.5519727	0.7088351	-1.9096464
H	-1.7907902	-1.1348494	1.3433193
H	-1.0842167	-2.5035485	-0.8974315
H	-2.7074978	-2.6953495	-0.2091330
O	3.3565740	-0.5886963	-0.7960939
H	1.8772970	-1.4508560	-1.8908967
C	2.9560492	-1.3966599	-1.6416152
C	3.8354979	-2.3653064	-2.4065417
C	5.3223527	-2.1868257	-2.0733318
H	5.6740143	-1.1992768	-2.3921994
H	5.9246939	-2.9474594	-2.5814599
H	5.4973569	-2.2635803	-0.9961987
C	3.5420215	-2.2473194	-3.9218390
H	3.5096343	-3.3722407	-2.0887684
H	2.4730828	-2.3648316	-4.1371490
H	4.0848125	-3.0211963	-4.4741833
H	3.8616854	-1.2706192	-4.3035375
