37
-0.00986384 (energy)
C	-0.4784841	0.0673768	-0.0836712
O	-0.2876593	-0.2546311	1.0892516
O	0.5572254	0.2029935	-0.9913113
H	1.4190194	0.0172813	-0.5581249
N	-2.9618656	-0.0630014	0.0186825
C	-4.4732856	-1.7632825	0.8249505
H	-5.0141355	-1.0855244	1.4728124
H	-4.8063730	-2.7930243	0.8132441
C	-3.4259673	-1.3804998	0.0576848
C	-2.7037817	-2.3709995	-0.8295373
H	-1.6403385	-2.4495386	-0.5707900
H	-3.1467631	-3.3625880	-0.7172116
H	-2.7682386	-2.0938295	-1.8898781
C	-2.6655241	2.2248639	0.6155140
C	-3.5539268	0.9879720	0.8637101
C	-1.8130969	0.4078961	-0.7417981
C	-2.0176585	1.9497282	-0.7586841
H	-3.2370945	3.1573158	0.6281544
H	-1.8924937	2.2935807	1.3887090
H	-4.6001938	1.1617896	0.5703456
H	-3.5519727	0.6844979	1.9185044
H	-1.7907902	0.0058760	-1.7585094
H	-1.0842167	2.4946872	-0.9217777
H	-2.7074978	2.1991855	-1.5723322
O	3.0103536	0.0404058	1.0985032
H	2.2839635	1.9164016	1.3868951
C	3.0335151	1.1445834	1.6538292
C	4.0320829	1.5665153	2.7129111
C	4.9908129	0.4305053	3.0923045
H	4.4440705	-0.3976682	3.5568437
H	5.7463235	0.7851537	3.8015300
H	5.4990954	0.0317044	2.2095021
C	3.2791567	2.1488148	3.9336505
H	4.6086864	2.3935762	2.2606031
H	2.5901723	2.9498019	3.6395118
H	3.9906752	2.5634014	4.6550735
H	2.6989687	1.3682246	4.4394991
