37
-0.0103738 (energy)
C	-0.4784841	-0.0707002	-0.0808825
O	-0.2876593	1.0284872	0.4399093
O	0.5572254	-0.9410016	-0.3720490
H	1.4190194	-0.5466448	-0.1139362
N	-2.9618656	0.0074586	0.0652884
C	-4.4732856	0.5062268	1.8797455
H	-5.0141355	1.2619377	1.3247840
H	-4.8063730	0.3158854	2.8918104
C	-3.4259673	-0.1829129	1.3695438
C	-2.7037817	-1.2286545	2.1909310
H	-1.6403385	-0.9874764	2.3132079
H	-3.1467631	-1.2902229	3.1869602
H	-2.7682386	-2.2247563	1.7338456
C	-2.6655241	0.9925066	-2.0841803
C	-3.5539268	1.0221479	-0.8229808
C	-1.8130969	-0.6596981	-0.5305112
C	-2.0176585	-0.4085912	-2.0518515
H	-3.2370945	1.1668736	-3.0002712
H	-1.8924937	1.7658875	-2.0175893
H	-4.6001938	0.7634234	-1.0450999
H	-3.5519727	2.0082198	-0.3409540
H	-1.7907902	-1.7307733	-0.3111487
H	-1.0842167	-0.4745758	-2.6168523
H	-2.7074978	-1.1665603	-2.4388076
O	3.3827051	0.1013246	0.8831746
H	4.1697165	1.4560261	-0.4112634
C	4.3160771	0.7977626	0.4685391
C	5.7052385	0.8423761	1.0727400
C	5.8197413	-0.0292190	2.3300516
H	5.1709314	0.3533108	3.1258606
H	6.8505137	-0.0373602	2.7002064
H	5.5129760	-1.0591688	2.1255234
C	6.1152062	2.3138344	1.3235632
H	6.3785021	0.4449218	0.2918239
H	6.0138964	2.9221492	0.4166526
H	7.1588365	2.3658702	1.6502430
H	5.4918815	2.7617039	2.1063155
