37
-0.00782561 (energy)
C	-0.4782452	-0.0673768	-0.0850261
O	0.1022348	0.2546311	-1.1219470
O	0.1845721	-0.2029936	1.1221103
H	1.1425520	-0.0172813	1.0097992
N	-2.7768534	0.0630013	-1.0305738
C	-3.9213636	1.7632825	-2.3051540
H	-4.2080144	1.0855243	-3.0989266
H	-4.2383673	2.7930243	-2.4080761
C	-3.1996267	1.3804998	-1.2259560
C	-2.8244422	2.3709994	-0.1452379
H	-1.7366358	2.4495385	-0.0246617
H	-3.2022910	3.3625879	-0.4022980
H	-3.2476700	2.0938294	0.8291109
C	-2.2942549	-2.2248639	-1.4900573
C	-3.0441924	-0.9879720	-2.0271369
C	-1.9574636	-0.4078962	0.0769463
C	-2.1554640	-1.9497282	0.0228497
H	-2.8270320	-3.1573158	-1.6974240
H	-1.3033957	-2.2935807	-1.9522308
H	-4.1276982	-1.1617897	-2.1093090
H	-2.6815951	-0.6844978	-3.0176510
H	-2.2842381	-0.0058761	1.0399718
H	-1.3340969	-2.4946873	0.4953635
H	-3.0819849	-2.1991857	0.5514897
O	2.7269303	-0.5339509	2.5911191
H	3.4533205	-2.4099467	2.8795114
C	2.7037688	-1.6381284	3.1464454
C	1.7052010	-2.0600601	4.2055272
C	0.7464710	-0.9240501	4.5849204
H	1.2932133	-0.0958765	5.0494595
H	-0.0090397	-1.2786984	5.2941459
H	0.2381885	-0.5252493	3.7021179
C	2.4581271	-2.6423594	5.4262668
H	1.1285975	-2.8871211	3.7532194
H	3.1471116	-3.4433466	5.1321282
H	1.7466086	-3.0569459	6.1476898
H	3.0383152	-1.8617691	5.9321153
