37
-0.0049382 (energy)
C	1.7294430	2.4624091	1.7524893
O	1.5063520	3.6707684	1.7180879
O	2.8614718	1.9120802	1.2149652
H	2.8066255	0.9303167	1.3373570
N	1.2058512	0.0615179	2.2002461
C	0.0379908	-0.0347490	0.0641616
H	-0.1599465	1.0288298	0.0239336
H	-0.2924031	-0.6150792	-0.7878952
C	0.6892438	-0.6412819	1.0786020
C	0.9810460	-2.1251146	1.0557282
H	0.5202633	-2.6487746	1.9022593
H	0.5934062	-2.5682910	0.1363337
H	2.0599656	-2.3229326	1.0977140
C	1.8488719	0.5224585	4.4353507
C	1.5179383	-0.6344000	3.4811266
C	0.7936559	1.4636330	2.4534154
C	0.8601115	1.6221905	3.9979152
H	1.7325822	0.2394416	5.4851609
H	2.8832576	0.8547884	4.2864046
H	0.6482441	-1.2012784	3.8477259
H	2.3492425	-1.3325461	3.3528170
H	-0.2210158	1.6546291	2.0869398
H	1.1621189	2.6311370	4.2874387
H	-0.1313482	1.4311050	4.4239558
O	2.7395325	2.9234904	-1.9774744
H	4.1738477	3.3625481	-0.6062920
C	3.2776074	3.6899343	-1.1705228
C	2.8109957	5.0985435	-0.8624450
C	1.6172216	5.5175052	-1.7301984
H	1.9028241	5.5569265	-2.7873040
H	1.2549556	6.5078213	-1.4342085
H	0.7941626	4.8024373	-1.6408384
C	4.0054901	6.0768867	-0.9729115
H	2.5013952	5.0804368	0.1981697
H	4.8521993	5.7527487	-0.3558090
H	3.7082987	7.0766538	-0.6401432
H	4.3492513	6.1530401	-2.0111075
