37
-0.0111159 (energy)
C	0.1972594	0.4243702	-0.1489968
O	1.0657895	-0.4416628	-0.0157770
O	-1.1346418	0.1719013	0.1054513
H	-1.2559992	-0.7715937	0.3508841
N	-0.4944782	2.4257506	-1.4848577
C	0.3207285	1.0839987	-3.3293651
H	1.0415780	0.5378474	-2.7341862
H	0.2752803	0.8326230	-4.3812224
C	-0.5068143	2.0307455	-2.8251914
C	-1.5165902	2.7366030	-3.7035276
H	-1.3828812	3.8255450	-3.6834855
H	-1.4118994	2.4018919	-4.7374840
H	-2.5457016	2.5278057	-3.3846629
C	-1.1193911	3.3150397	0.6287929
C	-1.4142483	3.4104871	-0.8815155
C	0.4641132	1.8768918	-0.5347275
C	0.3416897	2.8224637	0.6921306
H	-1.2589556	4.2732688	1.1381038
H	-1.7822531	2.5787353	1.0925722
H	-1.2154590	4.4240559	-1.2620882
H	-2.4604546	3.1707602	-1.1009957
H	1.4790358	1.8860994	-0.9489276
H	0.5883588	2.3256906	1.6348655
H	1.0403742	3.6563534	0.5594551
O	-0.6378434	-2.4067024	1.8432140
H	-0.3837908	-4.0673298	0.6995590
C	0.0040307	-3.4059116	1.5001246
C	1.3306162	-3.8355673	2.0937452
C	1.8490040	-2.8390871	3.1386961
H	2.0662437	-1.8705374	2.6746773
H	2.7678888	-3.2120244	3.6036061
H	1.1053548	-2.6662683	3.9221838
C	2.3481461	-4.0959498	0.9566396
H	1.1331451	-4.8064086	2.5831899
H	1.9535886	-4.8001785	0.2142220
H	3.2723208	-4.5179271	1.3645953
H	2.6002646	-3.1619986	0.4408940
