37
-0.00406175 (energy)
C	-2.2372495	1.6011253	0.4913886
O	-2.5023466	2.4025788	1.3833870
O	-2.7579824	1.7170147	-0.7722033
H	-2.4902347	0.9209790	-1.2937389
N	-1.4325538	-0.6130863	-0.3362450
C	-3.4650774	-1.3688369	0.7708190
H	-3.4527870	-0.5863115	1.5188334
H	-4.3113008	-2.0435446	0.7989615
C	-2.5207637	-1.5142599	-0.1822836
C	-2.6015371	-2.6175918	-1.2142486
H	-1.8114687	-3.3679662	-1.0838643
H	-3.5606284	-3.1337902	-1.1359507
H	-2.5087458	-2.2204435	-2.2328617
C	0.9367757	-0.3119827	-0.0967127
C	-0.1298760	-1.0473223	-0.9320019
C	-1.2308259	0.4599766	0.6599938
C	0.2127342	0.9582083	0.3868445
H	1.2304365	-0.9271661	0.7621534
H	1.8385002	-0.0904234	-0.6750932
H	-0.0113369	-2.1321858	-0.8738139
H	-0.0774447	-0.7598972	-1.9897813
H	-1.3229602	0.0838427	1.6875052
H	0.2008975	1.7176253	-0.4046286
H	0.6565346	1.4071312	1.2778634
O	3.6155983	-0.4601391	-2.0865313
H	5.0201263	1.0070267	-2.0165430
C	4.4701748	0.2567368	-2.6193724
C	4.8581004	0.2085151	-4.0836151
C	4.1187344	-0.9000700	-4.8438770
H	4.4022497	-1.8867009	-4.4607664
H	4.3612056	-0.8624417	-5.9112872
H	3.0353027	-0.8035599	-4.7272791
C	6.3970060	0.0986026	-4.2095675
H	4.5664054	1.1906481	-4.4976352
H	6.9063860	0.8917073	-3.6489300
H	6.6979662	0.1802006	-5.2590228
H	6.7488333	-0.8677424	-3.8298084
