37
-0.00779184 (energy)
C	-0.3077423	0.1013267	-0.3674897
O	-0.9140080	0.0545586	0.7039498
O	1.0548243	-0.1114550	-0.4554825
H	1.4293786	-0.3034932	0.4322825
N	-2.2437585	-0.0708731	-1.8974954
C	-1.4819835	-2.3494047	-2.1994307
H	-0.4366642	-2.1162629	-2.0383517
H	-1.7183487	-3.3847389	-2.4082880
C	-2.4729720	-1.4278888	-2.1383992
C	-3.9205669	-1.8187233	-2.3382811
H	-4.3848607	-1.2543045	-3.1568443
H	-3.9922323	-2.8818067	-2.5765448
H	-4.5162228	-1.6353481	-1.4351288
C	-2.5158705	2.2037265	-1.2686303
C	-3.2932402	0.9560775	-1.7356845
C	-0.8980552	0.4577623	-1.7294341
C	-1.0990823	1.9938990	-1.8436124
H	-2.9764283	3.1331562	-1.6162764
H	-2.4747102	2.2290415	-0.1750479
H	-3.8133569	1.1439028	-2.6871282
H	-4.0437889	0.6525763	-0.9977677
H	-0.2219078	0.0779582	-2.5020328
H	-0.3287764	2.5621945	-1.3143842
H	-1.0593922	2.2744192	-2.9022130
O	3.5112388	-0.4222165	1.4011460
H	3.1090834	1.3794418	2.2511291
C	3.7083748	0.4469236	2.2578048
C	4.7363852	0.3589467	3.3678829
C	5.4764840	-0.9848816	3.3685960
H	4.7842279	-1.8072073	3.5810978
H	6.2627317	-0.9908923	4.1310597
H	5.9319576	-1.1850688	2.3943258
C	4.0625115	0.6733064	4.7255454
H	5.4575425	1.1714975	3.1659496
H	3.5285728	1.6309347	4.6999536
H	4.8153619	0.7275295	5.5185573
H	3.3443725	-0.1108219	4.9924558
