37
-0.00873636 (energy)
C	-0.4148720	-0.2319369	0.1187753
O	-0.6181216	0.5843487	-0.7812777
O	0.8354264	-0.4216416	0.6758860
H	1.4910259	0.1793542	0.2584057
N	-2.7574249	-0.5985566	0.8235908
C	-2.1448587	0.7970506	2.7051367
H	-1.1074875	0.4859395	2.7132003
H	-2.4384027	1.5159721	3.4590536
C	-3.0552092	0.3458581	1.8092228
C	-4.4838671	0.8427698	1.8250569
H	-5.2001256	0.0180424	1.9298490
H	-4.6327015	1.5289776	2.6611305
H	-4.7347042	1.3787736	0.9009914
C	-2.7980419	-1.9013293	-1.1624740
C	-3.6882725	-1.0567842	-0.2279664
C	-1.4353972	-1.1978498	0.7153899
C	-1.6633520	-2.3993700	-0.2424986
H	-3.3497266	-2.7220479	-1.6303156
H	-2.3853368	-1.2692218	-1.9551734
H	-4.5024353	-1.6610147	0.1999230
H	-4.1411753	-0.2135649	-0.7607119
H	-1.0642708	-1.5222188	1.6928280
H	-0.7584945	-2.6843926	-0.7869326
H	-1.9881182	-3.2624055	0.3496152
O	2.8707344	-0.1165256	-1.5574552
H	1.8847271	-1.8935857	-1.5619220
C	2.5593107	-1.1887029	-2.0880989
C	3.0307890	-1.6560021	-3.4505078
C	3.8959175	-0.6046685	-4.1575237
H	3.3104679	0.2961185	-4.3729925
H	4.2834111	-0.9979611	-5.1034319
H	4.7407318	-0.3029546	-3.5314318
C	1.8131015	-2.0988285	-4.2974537
H	3.6392029	-2.5580782	-3.2576997
H	1.2012080	-2.8401203	-3.7693720
H	2.1488583	-2.5466643	-5.2383586
H	1.1760093	-1.2399302	-4.5387613
