37
-0.00676578 (energy)
C	-0.1634942	-0.4261409	-0.1780299
O	-1.0996516	0.3530609	0.0068539
O	1.1469948	-0.0855748	0.0980852
H	1.1953272	0.8287895	0.4543130
N	-1.4594616	-2.5240326	-0.3730886
C	-0.6403593	-2.9425273	1.8668011
H	0.2868273	-2.4008886	1.7255682
H	-0.7910365	-3.3952046	2.8382878
C	-1.5924579	-3.0598169	0.9103880
C	-2.8843886	-3.8002435	1.1766946
H	-3.0407169	-4.6161305	0.4597059
H	-2.8702409	-4.2294778	2.1804922
H	-3.7530182	-3.1332398	1.1081014
C	-1.9302479	-1.6387442	-2.5266773
C	-2.5009945	-2.5494527	-1.4203638
C	-0.2523946	-1.8234440	-0.7863464
C	-0.4022470	-1.7300699	-2.3297162
H	-2.2441287	-1.9541948	-3.5260674
H	-2.2655971	-0.6084652	-2.3707168
H	-2.6643315	-3.5725067	-1.7914787
H	-3.4586620	-2.1720776	-1.0456391
H	0.6472204	-2.3766293	-0.4982248
H	0.1405970	-0.8821723	-2.7572713
H	-0.0028878	-2.6476360	-2.7763555
O	2.4011580	2.7330443	0.9106395
H	1.4639731	3.1214484	-0.8503259
C	1.7578376	3.4739222	0.1587284
C	1.3104870	4.8820095	0.4963465
C	1.6799191	5.2802142	1.9311197
H	1.1497591	4.6516521	2.6552988
H	1.4127300	6.3251766	2.1214783
H	2.7513986	5.1541769	2.1121712
C	-0.2022201	5.0303902	0.2033010
H	1.8459450	5.5387273	-0.2129422
H	-0.4470265	4.7286996	-0.8222964
H	-0.5125633	6.0723705	0.3319708
H	-0.7924407	4.4131772	0.8906945
