37
-0.00914919 (energy)
C	-0.4710137	-0.0890951	0.0861612
O	-0.2070233	-0.2511114	-1.1095299
O	0.4747239	0.2927538	1.0075054
H	1.3596772	0.3999444	0.5932958
N	-2.9390848	0.0493432	-0.1037839
C	-2.3863608	2.4050108	-0.0304750
H	-1.5221725	2.2750707	0.6097763
H	-2.6143748	3.4185752	-0.3357585
C	-3.1703157	1.3790369	-0.4519025
C	-4.3666724	1.6315103	-1.3442288
H	-5.3091554	1.3771185	-0.8432966
H	-4.4104027	2.6862288	-1.6232833
H	-4.3164697	1.0357804	-2.2636807
C	-3.5130302	-2.0990428	0.6822219
C	-3.8044406	-1.0989894	-0.4483587
C	-1.8190223	-0.3351896	0.7520554
C	-2.0204321	-1.8650189	0.9959593
H	-4.1285464	-1.8624431	1.5574976
H	-3.7172351	-3.1327985	0.3900388
H	-4.8555403	-0.8051551	-0.4785906
H	-3.5405393	-1.5220501	-1.4291282
H	-1.8345220	0.2241549	1.6958102
H	-1.3972991	-2.4385751	0.3004174
H	-1.7422944	-2.1476975	2.0134549
O	3.3460818	-0.5135559	-0.1114878
H	2.3785049	-2.2946406	0.0358383
C	3.3379949	-1.7396117	0.0461618
C	4.5678285	-2.5985104	0.2620805
C	5.8654485	-1.7834313	0.1882593
H	6.0040827	-1.3677078	-0.8160065
H	6.7298879	-2.4139400	0.4223017
H	5.8444570	-0.9437612	0.8891494
C	4.5500052	-3.7887413	-0.7274690
H	4.4588424	-3.0179585	1.2785790
H	3.6096698	-4.3500303	-0.6681275
H	5.3699692	-4.4790523	-0.5044858
H	4.6731991	-3.4372961	-1.7585517
