37
-0.0125883 (energy)
C	-0.4798432	-0.0070237	-0.0996584
O	-0.2576779	0.6853950	0.8932427
O	0.5293323	-0.6515016	-0.7939737
H	1.4020594	-0.4542834	-0.3888552
N	-2.9716943	0.0110565	0.0846932
C	-4.1706417	-0.2137733	2.1712333
H	-4.6931317	0.7283880	2.0645894
H	-4.3982414	-0.7975428	3.0539212
C	-3.2545369	-0.6588620	1.2808327
C	-2.5084451	-1.9558833	1.5103578
H	-1.4329928	-1.7910391	1.6482740
H	-2.8821509	-2.4433105	2.4132448
H	-2.6357092	-2.6525762	0.6718930
C	-3.4543231	1.2113707	-1.8800031
C	-3.7612197	1.1603999	-0.3746253
C	-1.8204337	-0.2564734	-0.7740334
C	-1.9850373	0.7479917	-1.9663188
H	-4.1080063	0.5134487	-2.4156214
H	-3.5986525	2.2078952	-2.3081869
H	-4.8218972	0.9837729	-0.1669503
H	-3.4676100	2.0916941	0.1355714
H	-1.8136467	-1.2898237	-1.1408087
H	-1.3145556	1.6037538	-1.8264875
H	-1.7296503	0.2777211	-2.9185628
O	2.7408903	-0.4075604	1.5626389
H	1.6619759	1.2537627	2.0166459
C	2.2835228	0.4074081	2.3718194
C	2.4988073	0.3611432	3.8712628
C	3.2995705	-0.8734776	4.3049805
H	2.7422687	-1.7915025	4.0876326
H	3.5041366	-0.8412831	5.3804752
H	4.2513530	-0.9347550	3.7691742
C	1.1354579	0.4765547	4.5952337
H	3.0749748	1.2723186	4.1139031
H	0.5737716	1.3575597	4.2618629
H	1.2865931	0.5615860	5.6762145
H	0.5205786	-0.4113948	4.4073741
