37
-0.00816811 (energy)
C	-0.4317821	-0.2026884	0.1127487
O	-0.5979043	0.9017175	-0.4043052
O	0.8261608	-0.7414108	0.3206394
H	1.5185609	-0.1308076	-0.0146431
N	-2.8102374	-0.5700024	0.7848090
C	-4.2271046	1.1493186	1.7218765
H	-4.9789139	1.0634693	0.9476354
H	-4.4190155	1.8696782	2.5067195
C	-3.0821458	0.4287589	1.7271900
C	-2.0361245	0.6326912	2.8022947
H	-1.0979416	1.0253641	2.3919133
H	-2.3973208	1.3539260	3.5383679
H	-1.8059685	-0.3023531	3.3289074
C	-3.2833082	-2.4047380	-0.6093453
C	-3.8140340	-1.0260180	-0.1846014
C	-1.5023136	-1.1834131	0.5669854
C	-1.7506183	-2.2299609	-0.5734845
H	-3.5992501	-3.1633100	0.1159361
H	-3.6408785	-2.7102577	-1.5972899
H	-4.7939427	-1.0834507	0.3010356
H	-3.9012276	-0.3384594	-1.0410339
H	-1.1271370	-1.6807636	1.4693535
H	-1.3979594	-1.8276887	-1.5301642
H	-1.2084964	-3.1590094	-0.3834368
O	3.5481017	0.3529974	0.9503901
H	4.8640600	-0.5826694	-0.2836902
C	4.6576857	-0.1358294	0.7095512
C	5.8175266	-0.1866226	1.6837214
C	5.4938414	0.5153830	3.0088770
H	5.3278014	1.5864773	2.8483067
H	6.3196215	0.3975250	3.7186442
H	4.5840351	0.1079051	3.4593743
C	7.0910425	0.3724655	1.0041974
H	5.9945140	-1.2605639	1.8745337
H	7.2972834	-0.1333339	0.0531826
H	7.9599132	0.2339560	1.6557116
H	6.9844295	1.4450566	0.8041878
