37
-0.00376969 (energy)
C	2.3451491	-0.7110847	-0.4881274
O	2.2601511	-0.6530516	-1.7145291
O	3.5496310	-0.9176979	0.1617919
H	4.2760915	-1.0220297	-0.4909243
N	0.0000000	0.0000000	0.0000000
C	-1.1456443	1.7697604	-1.1819983
H	-1.9599050	1.1344145	-1.5065777
H	-1.1971762	2.8111126	-1.4729560
C	-0.0884915	1.3154045	-0.4705534
C	1.0534063	2.2354664	-0.0948483
H	1.9940584	1.9376675	-0.5736818
H	0.8304197	3.2540272	-0.4192815
H	1.2209496	2.2544341	0.9896654
C	-0.7753168	-2.0030755	0.9593170
C	-1.1191808	-0.9447304	-0.1011589
C	1.2130279	-0.6230536	0.5241679
C	0.7654466	-2.0738759	0.9145195
H	-1.1145499	-1.6643647	1.9449537
H	-1.2391502	-2.9729466	0.7557435
H	-2.0590647	-0.4247229	0.1123199
H	-1.1973260	-1.3838550	-1.1085710
H	1.6007456	-0.0918091	1.4015716
H	1.0845989	-2.7819328	0.1410697
H	1.2168198	-2.3871052	1.8586038
O	0.2426362	1.7965740	-7.6061219
H	-0.5852750	0.0543319	-6.9663345
C	0.0097924	0.9586035	-6.7276455
C	0.4797000	1.0500402	-5.2897148
C	1.3608117	2.2816784	-5.0440919
H	2.2883921	2.2150185	-5.6235281
H	1.6223129	2.3625698	-3.9835985
H	0.8501387	3.1995406	-5.3498295
C	1.1727066	-0.2736090	-4.8849061
H	-0.4408478	1.1345248	-4.6842911
H	0.5318749	-1.1419038	-5.0803446
H	1.4123947	-0.2644214	-3.8167034
H	2.1077445	-0.4073880	-5.4413495
