37
-0.00253442 (energy)
C	-2.1131473	1.5103216	-3.5669091
O	-1.1574566	0.8811634	-4.0201958
O	-3.2888055	1.6843297	-4.2764229
H	-3.2210557	1.2584577	-5.1588693
N	-1.2132512	1.7780078	-1.2512742
C	-0.0641486	0.0296074	-0.0411784
H	0.8373888	0.6115675	0.1023110
H	-0.0735822	-0.9640973	0.3879934
C	-1.1336755	0.4782644	-0.7375865
C	-2.3457134	-0.4010856	-0.9596373
H	-2.4917069	-0.6372742	-2.0206241
H	-2.2190032	-1.3471950	-0.4292905
H	-3.2651111	0.0726297	-0.5923471
C	-0.9565313	4.1163420	-1.2490351
C	-0.2145228	2.8069215	-0.9363255
C	-2.1965249	2.2334627	-2.2311304
C	-1.8527909	3.7472929	-2.4496569
H	-1.5698075	4.4095434	-0.3892624
H	-0.2778659	4.9431443	-1.4793493
H	0.0743528	2.7279628	0.1170876
H	0.6966512	2.6962476	-1.5456937
H	-3.2236501	2.1222048	-1.8636817
H	-1.2941526	3.8702623	-3.3846592
H	-2.7590286	4.3528314	-2.5217801
O	3.3824021	-0.4178731	-0.4971588
H	1.6264171	-0.9889050	-1.3460474
C	2.7345241	-1.0050006	-1.3710393
C	3.3338864	-1.7805657	-2.5269295
C	4.8657393	-1.6993759	-2.5482808
H	5.1957564	-0.6686982	-2.7197078
H	5.2734677	-2.3287807	-3.3465162
H	5.2914658	-2.0240955	-1.5943166
C	2.6899064	-1.3135152	-3.8548334
H	3.0272490	-2.8301265	-2.3673070
H	1.5952399	-1.3669597	-3.8142582
H	3.0283703	-1.9449891	-4.6826465
H	2.9729628	-0.2785785	-4.0797939
