37
-0.00174926 (energy)
C	0.5984399	-2.4218403	-1.0230222
O	1.7703232	-2.4569991	-1.3973311
O	-0.3710445	-3.2609049	-1.5444927
H	0.0156223	-3.8402703	-2.2369470
N	0.9519445	-0.8578219	0.8933584
C	2.8375265	-0.9773478	2.4006629
H	3.1689459	0.0322617	2.1935724
H	3.4125154	-1.5373367	3.1269732
C	1.7795201	-1.5519839	1.7837505
C	1.3963838	-2.9888806	2.0668292
H	1.5126912	-3.6259180	1.1817032
H	2.0401275	-3.3965940	2.8490121
H	0.3560157	-3.0735047	2.4060537
C	-0.2979722	0.9644258	0.0866129
C	1.0685051	0.5904648	0.6831352
C	-0.0205735	-1.4773391	-0.0037434
C	-0.6738288	-0.2695627	-0.7601312
H	-1.0263573	1.1123295	0.8921334
H	-0.2628242	1.8801140	-0.5113112
H	1.2597530	1.0862595	1.6407231
H	1.8964321	0.8420416	0.0011804
H	-0.7822665	-2.0437889	0.5452024
H	-0.2402349	-0.1807468	-1.7628951
H	-1.7509758	-0.4099644	-0.8749671
O	2.3116889	2.0651670	3.4350237
H	4.1552053	1.9675917	4.2847880
C	3.0611631	2.0865410	4.4178580
C	2.6106110	2.2678841	5.8534540
C	1.0986729	2.5042975	5.9619579
H	0.8185830	3.4446693	5.4742636
H	0.7915630	2.5561487	7.0119901
H	0.5377857	1.7028551	5.4722344
C	3.4425590	3.3897733	6.5208388
H	2.8687678	1.3226695	6.3643436
H	4.5195888	3.2086082	6.4209210
H	3.2080798	3.4512012	7.5884707
H	3.2164759	4.3618814	6.0672814
