37
-0.00170258 (energy)
C	-2.1972611	0.4144222	2.1809789
O	-1.7226420	-0.5158893	2.8320633
O	-2.5345597	1.6262495	2.7585297
H	-2.3560438	1.6055254	3.7241233
N	-1.8609925	-0.6075188	-0.0742803
C	0.1270866	-1.8198239	-0.7219919
H	-0.4096028	-2.7276060	-0.9668036
H	1.1985957	-1.8334750	-0.8749897
C	-0.4732870	-0.7146188	-0.2237567
C	0.3341531	0.5073473	0.1589161
H	0.2858529	0.7096146	1.2357387
H	1.3843412	0.3523649	-0.0970754
H	-0.0135505	1.4059672	-0.3666168
C	-4.1202826	-0.8635115	-0.6774327
C	-2.7853528	-1.6213972	-0.5967007
C	-2.5434902	0.4266594	0.6997074
C	-4.0663611	0.0953688	0.5302977
H	-4.1689902	-0.2968551	-1.6143488
H	-4.9880929	-1.5287712	-0.6378316
H	-2.4369847	-1.9660051	-1.5761127
H	-2.8513179	-2.4988322	0.0663020
H	-2.3251888	1.4327248	0.3221364
H	-4.4381675	-0.4126333	1.4275832
H	-4.6566925	1.0042868	0.3942007
O	3.6072037	0.3917409	-0.6692775
H	4.1518617	1.2682225	1.0815225
C	4.3328767	1.1398438	-0.0045425
C	5.4999000	1.9356325	-0.5537197
C	5.7449764	1.6548484	-2.0419129
H	6.0394562	0.6105739	-2.1947778
H	6.5428882	2.2977831	-2.4286225
H	4.8393454	1.8281886	-2.6305717
C	6.7543633	1.6862993	0.3182494
H	5.2189591	2.9965662	-0.4249731
H	6.5545925	1.8800284	1.3790784
H	7.5714588	2.3432535	0.0030389
H	7.0953218	0.6491271	0.2190366
