37
-0.00800156 (energy)
C	2.4460708	-1.3620715	1.4789360
O	1.8602686	-1.9137586	2.4134517
O	3.3166202	-0.3102097	1.6725443
H	3.3424067	-0.0633952	2.6226442
N	2.2258446	-0.6615636	-0.9135032
C	0.0649338	0.0085657	-0.0494268
H	0.0069040	-0.7855061	0.6838413
H	-0.7800592	0.6835162	-0.0953249
C	1.1313556	1.3234882	-1.8845055
H	1.1514285	0.9587854	-2.9197760
H	0.2368552	1.9377121	-1.7634901
H	2.0075840	1.9694104	-1.7468227
C	4.0068737	-1.9000961	-1.8097540
C	3.4341992	-0.4752344	-1.7328198
C	2.3617936	-1.7810049	0.0153728
C	3.6842685	-2.4940081	-0.4200262
H	3.4912456	-2.4633879	-2.5958674
H	5.0791608	-1.9127340	-2.0272074
H	3.1830821	-0.0771402	-2.7185838
H	4.1500274	0.2131294	-1.2559213
H	1.4947216	-2.4489541	-0.0545330
H	4.4868881	-2.2537003	0.2848290
H	3.5638298	-3.5800870	-0.4357061
C	1.1138290	0.1844690	-0.8884448
O	4.3334723	-0.5374935	4.6423908
H	5.9993386	0.6173395	4.7887562
C	5.4318311	-0.2672860	5.1411166
C	6.1103588	-1.0632767	6.2378469
C	5.2411451	-2.2260147	6.7339611
H	4.3257544	-1.8506716	7.2048885
H	5.7857146	-2.8268607	7.4701682
H	4.9400655	-2.8748028	5.9062181
C	6.5450827	-0.1104740	7.3777405
H	7.0320088	-1.4669744	5.7810393
H	7.1540116	0.7200377	7.0005756
H	7.1381709	-0.6540285	8.1202946
H	5.6696627	0.3112162	7.8853222
