37
-0.00757447 (energy)
C	-0.4149327	0.1317166	0.2236005
O	-0.6120941	-0.0731630	-0.9763972
O	0.8302979	-0.0051564	0.8001594
H	1.4774814	-0.3253423	0.1346471
N	-1.4272493	-0.0751740	2.5029398
C	-2.0309387	-2.2174143	1.5481611
H	-2.1183783	-1.8470535	0.5348563
H	-2.2426570	-3.2686074	1.6959664
C	-1.5728697	-2.0327249	3.9955788
H	-2.2985367	-1.5843051	4.6866093
H	-1.7630224	-3.1073156	3.9617627
H	-0.5739883	-1.8782429	4.4225677
C	-1.3991653	2.1921874	3.1092207
C	-0.9598421	0.7995062	3.5904066
C	-1.4622155	0.6198573	1.2183580
C	-1.2088072	2.1211403	1.5772726
H	-2.4547037	2.3524633	3.3567984
H	-0.8152299	2.9988876	3.5625413
H	-1.4227295	0.5259265	4.5412793
H	0.1338441	0.7507950	3.7135513
H	-2.4316892	0.4747928	0.7264903
H	-0.1829250	2.3992462	1.3146138
H	-1.8870765	2.7806797	1.0302103
C	-1.6842279	-1.4449900	2.6056235
O	3.4896125	0.6470052	-0.4030841
H	4.2766240	-0.8630088	-1.5124278
C	4.4229846	0.1177338	-1.0169407
C	5.8121460	0.7050084	-1.1657946
C	5.9266488	2.0945694	-0.5257708
H	5.2778391	2.8118627	-1.0406799
H	6.9574213	2.4605144	-0.5820298
H	5.6198834	2.0719973	0.5240477
C	6.2221140	0.6965050	-2.6584531
H	6.4854096	0.0049733	-0.6387738
H	6.1208043	-0.3022603	-3.1000430
H	7.2657444	1.0091858	-2.7664255
H	5.5987894	1.3895939	-3.2354421
