37
-0.00720575 (energy)
C	2.0302062	-2.1815251	1.0978725
O	1.5556634	-2.6877112	2.1060343
O	2.1021277	-2.9162515	-0.0760861
H	2.4551256	-2.4001744	-0.8292445
N	1.8111226	0.2278631	1.7001795
C	0.0351926	0.0334303	0.0665300
H	0.5118190	-0.7578894	-0.4970647
H	-0.9308517	0.3598401	-0.2950968
C	0.5595674	0.5805078	1.1890784
C	-0.1909258	1.6456679	1.9576775
H	0.3526286	2.5991905	1.9724436
H	-1.1642512	1.8219212	1.4958458
H	-0.3601562	1.3459720	2.9992152
C	3.9197308	0.5509185	2.6868608
C	2.4160024	0.7430438	2.9419014
C	2.6511415	-0.7718249	1.0518318
C	3.9771789	-0.7631490	1.8782166
H	4.3058340	1.3868473	2.0922013
H	4.5002963	0.4922644	3.6122248
H	2.1543946	1.7915058	3.1010060
H	2.0865774	0.1686087	3.8208950
H	2.8254417	-0.4819762	0.0020702
H	3.9832499	-1.6201116	2.5598078
H	4.8578654	-0.8330560	1.2340362
O	4.4030625	-3.1209733	-2.2212612
H	4.2290640	-3.7602421	-0.3000031
C	4.6467902	-3.9240590	-1.3136370
C	5.4999992	-5.1683702	-1.4569644
C	5.9824475	-5.3786671	-2.8980196
H	5.1338141	-5.5592840	-3.5671937
H	6.6564614	-6.2399817	-2.9564583
H	6.5097177	-4.4955033	-3.2704995
C	4.7333243	-6.3908499	-0.8966714
H	6.3738216	-5.0029448	-0.8011042
H	4.3861909	-6.2153275	0.1287494
H	5.3817809	-7.2728978	-0.8873337
H	3.8596360	-6.6185577	-1.5184751
