37
-0.00616927 (energy)
C	1.0157634	2.0159552	1.2341866
O	0.4434607	2.8645318	1.9146111
O	2.2445767	1.5122601	1.5678902
H	2.4849369	0.8415355	0.8749802
N	1.3454919	0.4723089	-0.7065508
C	2.6316774	0.0041196	-2.7125620
H	2.3766614	-1.0476365	-2.7213380
H	3.3096014	0.3425337	-3.4859160
C	2.1714476	0.8754999	-1.7909956
C	2.5678390	2.3358630	-1.8121673
H	2.9918501	2.6533107	-0.8518599
H	3.3182038	2.5067221	-2.5867280
H	1.7166767	2.9940627	-2.0274312
C	-0.2440167	-0.8827959	0.4381707
C	0.8133750	-0.9152444	-0.6755719
C	0.3979607	1.4109655	-0.0392119
C	-0.8356487	0.5357525	0.3094578
H	-0.9956303	-1.6676022	0.3167547
H	0.2253142	-1.0161370	1.4203718
H	0.3586067	-1.1677226	-1.6462708
H	1.6216234	-1.6293435	-0.4886875
H	0.1127149	2.2438372	-0.6871919
H	-1.3370566	0.8925862	1.2118391
H	-1.5533487	0.5741024	-0.5178914
O	2.9865962	-1.8265502	1.4813111
H	1.8862504	-1.0586784	3.0076744
C	2.6443204	-1.7929805	2.6686830
C	3.1840535	-2.6990418	3.7570578
C	4.1685896	-3.7407146	3.2100408
H	3.6629447	-4.4254690	2.5200916
H	4.5985282	-4.3302056	4.0268797
H	4.9824912	-3.2623973	2.6573110
C	2.0062282	-3.3364968	4.5333013
H	3.7141577	-2.0310393	4.4597995
H	1.3079341	-2.5765748	4.9043827
H	2.3806447	-3.9000770	5.3939878
H	1.4483192	-4.0282510	3.8914013
