37
-0.00516289 (energy)
C	0.7260496	-0.3815797	-2.1968275
O	0.7950187	-1.1348270	-3.1726696
O	1.3553549	0.8464389	-2.1725399
H	1.8617265	0.9881095	-3.0019033
C	2.9819728	-0.9935647	1.3140042
H	3.0270798	-0.0212121	1.7886610
H	3.7990127	-1.6737974	1.5190472
C	1.9682060	-1.3722132	0.5031029
C	1.9604532	-2.7282321	-0.1729840
H	1.9499983	-2.6535105	-1.2666565
H	2.8505997	-3.2921329	0.1139361
H	1.0774505	-3.3099886	0.1219665
C	-0.9326669	0.8750306	0.8002838
C	0.5670706	0.6483362	1.0490890
N	0.8342739	-0.5767415	0.2871505
C	-0.0247344	-0.6715329	-0.9027493
C	-1.1481478	0.3889059	-0.6537224
H	-1.5172198	0.2649948	1.4977171
H	-1.2290350	1.9199594	0.9317607
H	0.8022696	0.4788017	2.1045602
H	1.1720588	1.4975088	0.6937540
H	-0.4335259	-1.6796938	-1.0155668
H	-1.0337813	1.2230863	-1.3515657
H	-2.1391615	-0.0456478	-0.8091090
O	2.5738198	3.1583985	-3.2397469
H	4.2228245	4.3389484	-3.1083767
C	3.2269229	4.1578400	-3.5602224
C	2.7793614	5.2086382	-4.5563801
C	1.4317897	4.8602998	-5.2016183
H	1.5142958	3.9453639	-5.7988454
H	1.0983029	5.6711231	-5.8580669
H	0.6638684	4.6862998	-4.4421748
C	3.8993792	5.4469031	-5.5979967
H	2.6732362	6.1409203	-3.9727095
H	4.8563697	5.6814917	-5.1164005
H	3.6363233	6.2843945	-6.2522150
H	4.0412972	4.5585175	-6.2244569
