37
-0.00232742 (energy)
C	1.8140702	0.7994622	1.6216914
O	1.6008596	1.4886792	2.6236532
O	2.9499861	0.9543361	0.8533465
H	3.5036491	1.6855057	1.2043091
C	-0.1116867	1.4896102	-2.0667785
H	0.5354152	1.0363866	-2.8074882
H	-0.7271445	2.3163412	-2.3985026
C	-0.1746439	1.0659569	-0.7841199
C	-1.0652367	1.7512032	0.2323558
H	-0.5003391	2.1667757	1.0749721
H	-1.6081424	2.5716459	-0.2417697
H	-1.8004356	1.0497268	0.6477396
C	1.3935287	-2.2373232	-0.3567333
C	1.2255826	-0.9805921	-1.2255991
N	0.5167924	-0.0639884	-0.3254784
C	0.8930935	-0.2865007	1.0786683
C	1.6072931	-1.6787892	1.0712820
H	0.4784675	-2.8382714	-0.3989608
H	2.2283576	-2.8658862	-0.6807179
H	0.6162286	-1.1583195	-2.1173282
H	2.1976997	-0.5752791	-1.5482098
H	0.0135074	-0.2829495	1.7287009
H	2.6748739	-1.5504688	1.2705985
H	1.1975297	-2.3339475	1.8445552
O	-0.4841208	-2.9624745	-3.0188591
H	-0.4907551	-2.9458828	-5.0510632
C	-1.0704801	-2.9823936	-4.1069389
C	-2.5736833	-3.0553084	-4.2854940
C	-3.3119145	-3.1815608	-2.9465779
H	-3.0565235	-4.1253386	-2.4519528
H	-4.3959474	-3.1559454	-3.1008151
H	-3.0358328	-2.3710097	-2.2657554
C	-2.9244325	-4.1941227	-5.2735488
H	-2.8587857	-2.1039626	-4.7699954
H	-2.3770184	-4.0926912	-6.2184546
H	-3.9953372	-4.1820747	-5.5007261
H	-2.6802981	-5.1713833	-4.8409031
