37
-0.00193191 (energy)
C	2.4279247	-0.7570826	0.3031188
O	3.3697015	0.0006894	0.5546030
O	2.5723657	-1.8603090	-0.5133817
H	3.4890512	-1.9106154	-0.8619265
C	-0.5977509	0.2159794	-2.4696219
H	-1.0178932	-0.7363735	-2.7684660
H	-0.6653335	1.0244264	-3.1866710
C	-0.0141313	0.4198814	-1.2669288
C	0.5963728	1.7574411	-0.9006505
H	1.6691619	1.6862571	-0.6864813
H	0.4670947	2.4633643	-1.7238318
H	0.1138535	2.1794516	-0.0094645
C	-0.7853492	-2.2889909	1.1038765
C	-0.7461548	-1.8115697	-0.3566164
N	0.0068489	-0.5559628	-0.2606980
C	1.0026638	-0.6040055	0.8204063
C	0.5798176	-1.8409656	1.6804840
H	-1.6054242	-1.7899251	1.6317679
H	-0.9327731	-3.3695954	1.1908061
H	-1.7413529	-1.6085945	-0.7646140
H	-0.2484949	-2.5441363	-1.0116343
H	0.9960883	0.3204007	1.4049204
H	1.3172695	-2.6408520	1.5697216
H	0.5232288	-1.5806375	2.7407278
O	8.9517908	2.6018608	0.8557980
H	8.8209305	1.6986714	-0.9600481
C	8.3026068	2.0786852	-0.0568788
C	6.7980041	1.8971526	-0.0628112
C	6.1508296	2.3716511	1.2447199
H	6.4894893	1.7594002	2.0879598
H	5.0597553	2.2989777	1.1826870
H	6.4207468	3.4086396	1.4650221
C	6.4538746	0.4268524	-0.4033514
H	6.4299168	2.5200168	-0.8980571
H	6.9362279	0.1036163	-1.3337551
H	5.3722357	0.3094489	-0.5252747
H	6.7794777	-0.2435222	0.4006403
