37
-0.00150588 (energy)
C	0.8799152	-1.1820913	3.9519696
O	1.8102895	-1.9456251	4.2273349
O	-0.4333408	-1.6056265	3.9270432
H	-0.4868366	-2.5667686	4.1211323
C	0.0000000	-0.0000000	0.0000000
H	-1.0386539	0.3055096	0.0257934
H	0.3766090	-0.3654631	-0.9470563
C	0.8142377	0.0625250	1.0778526
C	2.2522440	-0.4103879	1.0112792
H	2.4587477	-1.2301706	1.7092224
H	2.4811071	-0.7648070	0.0039676
H	2.9463077	0.4051836	1.2526275
C	-0.6225570	2.1372667	3.7582542
C	-0.8540808	1.3461563	2.4609309
N	0.4132129	0.6249864	2.2977005
C	1.0177662	0.2934248	3.5966710
C	0.2501757	1.1934483	4.6210564
H	-0.0786128	3.0612315	3.5331485
H	-1.5563826	2.4063007	4.2608344
H	-1.0195501	1.9918850	1.5927521
H	-1.7122311	0.6611735	2.5489333
H	2.0917418	0.5003137	3.5968886
H	-0.3836075	0.5724259	5.2602528
H	0.9468406	1.7367700	5.2649117
O	3.9057008	-2.0603955	-1.2515827
H	5.8099305	-1.5787869	-1.7732485
C	5.0530515	-2.3684478	-1.5933748
C	5.5498696	-3.7852098	-1.8001976
C	4.4798769	-4.8309795	-1.4609298
H	4.2245479	-4.7912214	-0.3961193
H	4.8404038	-5.8392334	-1.6911847
H	3.5595569	-4.6510242	-2.0242776
C	6.8648458	-3.9946095	-1.0107898
H	5.7997079	-3.8553928	-2.8743200
H	7.6111169	-3.2298883	-1.2579301
H	7.2948949	-4.9739908	-1.2441603
H	6.6792810	-3.9540379	0.0689054
