37
-0.00761434 (energy)
H	0.0156523	-1.2637281	2.0206090
O	2.5711805	-1.5637893	0.2289815
C	1.3319433	-2.0457896	0.5057321
O	1.0182572	-3.2121322	0.3168607
C	2.1834396	0.0939078	3.2321993
H	1.9518094	-0.9622116	3.3062691
H	2.7546714	0.5079854	4.0583504
C	1.8030514	0.8554035	2.1933399
C	2.2076883	2.3150573	2.1900889
H	2.8144715	2.5413335	1.3070733
H	2.8019275	2.5846154	3.0701891
H	1.3220219	2.9586624	2.1856577
N	1.0759537	0.3755337	1.0974573
C	-0.2181857	0.3027406	-0.8997025
C	-0.7707347	-0.7358186	0.0606681
C	0.3853422	-0.9577854	1.0363244
H	-1.0928728	-1.6442117	-0.4569722
H	-1.6342226	-0.3208533	0.5948896
C	0.5581054	1.2387904	0.0165610
H	-1.0018271	0.8222888	-1.4582683
H	0.4588683	-0.1697646	-1.6213025
H	-0.1142823	1.9961269	0.4358922
H	1.3673537	1.7366719	-0.5268236
H	2.5584195	-0.6095509	0.4862965
O	4.3449656	0.2288288	-1.5426441
H	4.7318533	-1.7542595	-1.5378548
C	5.0102844	-0.7435373	-1.8847553
C	6.2732504	-0.6725227	-2.7213490
C	6.5478725	0.7443551	-3.2104357
H	5.7317826	1.1141755	-3.8411079
H	7.4740351	0.7833540	-3.7932125
H	6.6521114	1.4351018	-2.3666243
C	6.1511243	-1.6419004	-3.8912116
H	7.0986255	-0.9938726	-2.0754400
H	5.9817890	-2.6643427	-3.5359780
H	7.0636265	-1.6420854	-4.4963305
H	5.3090594	-1.3768652	-4.5403518
