37
-0.00488145 (energy)
H	-2.9261333	-0.2483762	0.2754418
O	0.1843730	0.0156500	-0.0173553
C	-1.0212575	0.2525916	-0.5960933
O	-1.1757221	0.2995205	-1.8078543
C	-1.6536590	-1.9958682	2.1023269
H	-1.8668797	-2.1873106	1.0571408
H	-1.5660877	-2.8766734	2.7322516
C	-1.4990905	-0.7592766	2.6030757
C	-1.1787624	-0.6189963	4.0768607
H	-0.2248404	-0.0987113	4.2126531
H	-1.0938778	-1.5890876	4.5789321
H	-1.9656240	-0.0553359	4.5885128
N	-1.5901411	0.4102943	1.8390612
C	-1.7481246	2.7070307	1.2317834
C	-2.6729414	1.9130597	0.3259406
C	-2.1320002	0.4875137	0.4394729
H	-2.6811135	2.3026218	-0.6963494
H	-3.6968263	1.9549471	0.7172276
C	-1.5376424	1.7701069	2.4134038
H	-2.1735427	3.6683163	1.5333946
H	-0.7946508	2.8997596	0.7257072
H	-2.3468851	1.8972500	3.1417329
H	-0.5784087	1.9662148	2.9027380
H	0.0254371	0.0158545	0.9581876
O	2.0989622	2.9507739	-3.8906549
H	1.1027620	1.6672924	-2.6895703
C	2.0660144	2.1118584	-2.9960488
C	3.2707372	1.6603982	-2.1930283
C	4.5630294	2.2706405	-2.7219434
H	4.7485211	1.9745989	-3.7604373
H	5.4198919	1.9535366	-2.1184878
H	4.5181275	3.3648019	-2.6934999
C	3.3374971	0.1377368	-2.2082577
H	3.1099137	2.0009202	-1.1635193
H	2.4184450	-0.2982044	-1.8013769
H	4.1773498	-0.2233111	-1.6056626
H	3.4577929	-0.2443310	-3.2281857
