37
-0.0047662 (energy)
H	-1.7573422	1.2386978	1.1839562
O	-1.0751726	-0.3204571	-1.4493631
C	-0.6724391	-0.0182322	-0.1879790
O	0.5044898	0.0136785	0.1410291
C	-3.3061793	2.2662953	-0.9504232
H	-2.2890824	2.5377380	-0.6928191
H	-3.8712331	3.0217644	-1.4891923
C	-3.8478664	1.0777240	-0.6378963
C	-5.2725369	0.8039718	-1.0734472
H	-5.3101586	-0.0734400	-1.7275393
H	-5.7065928	1.6423178	-1.6294415
H	-5.9120303	0.6246084	-0.2030858
N	-3.1659680	0.0633328	0.0446941
C	-2.7082792	-1.9439487	1.2405556
C	-1.8898772	-0.8256486	1.8617243
C	-1.8553321	0.2338622	0.7599385
H	-0.8997352	-1.1674143	2.1775049
H	-2.4132696	-0.4311210	2.7412745
C	-3.8004401	-1.1939072	0.4902370
H	-3.1138791	-2.6353480	1.9845150
H	-2.0929984	-2.5200730	0.5392139
H	-4.6340130	-0.9702174	1.1659746
H	-4.1700263	-1.7827043	-0.3551976
H	-2.0617212	-0.2601007	-1.4444814
O	1.9382189	-4.3527738	-1.7983045
H	1.2221895	-3.3678640	-0.1859774
C	1.9972613	-3.4514140	-0.9680940
C	3.0453818	-2.3553415	-0.9589495
C	4.1091598	-2.5821364	-2.0262388
H	4.6406537	-3.5267383	-1.8657434
H	4.8451972	-1.7714836	-2.0220236
H	3.6586098	-2.6221609	-3.0239448
C	3.6702019	-2.2750184	0.4289750
H	2.5218186	-1.4156898	-1.1702421
H	2.9068046	-2.0838785	1.1911717
H	4.4074031	-1.4670971	0.4802257
H	4.1703910	-3.2131822	0.6942285
