37
-0.00458915 (energy)
H	-2.0707377	-0.1586054	0.5920447
O	-1.0816862	0.6069325	-2.2830933
C	-1.9576041	0.8917195	-1.2849508
O	-3.0541567	1.3918335	-1.4896083
C	-0.5722759	-2.3005413	-0.4929210
H	-1.6228360	-2.0906458	-0.6566114
H	-0.2763171	-3.3384536	-0.6171717
C	0.3205817	-1.3529523	-0.1632546
C	1.7673636	-1.7642567	0.0155794
H	2.4089192	-1.2188822	-0.6844751
H	1.9222370	-2.8333155	-0.1674123
H	2.1016043	-1.5570663	1.0373462
N	0.0000000	0.0000000	0.0000000
C	0.1551374	2.3074686	0.5659187
C	-1.2339505	1.8206442	0.9396356
C	-1.3944437	0.5506639	0.1035255
H	-2.0004495	2.5769513	0.7462938
H	-1.2613308	1.5695105	2.0070542
C	0.9586920	1.0171861	0.4774493
H	0.5697709	3.0067486	1.2974284
H	0.1322578	2.8079627	-0.4094540
H	1.3320203	0.7389867	1.4697866
H	1.8050243	1.1290272	-0.2075682
H	-0.2921220	0.2015192	-1.8481528
O	3.5866944	2.9367930	0.9686202
H	5.2999742	3.2598931	-0.0524688
C	4.5721570	3.6156155	0.6979757
C	4.9317675	4.9225111	1.3782105
C	3.8460591	5.3716281	2.3486214
H	2.8934990	5.5372043	1.8331302
H	4.1302986	6.3036842	2.8480271
H	3.6759236	4.6142435	3.1215618
C	5.1889628	5.9835276	0.3145935
H	5.8582221	4.7438039	1.9362909
H	5.9892910	5.6703583	-0.3648574
H	5.4873979	6.9323514	0.7723042
H	4.2945738	6.1619598	-0.2928027
