37
-0.00436457 (energy)
H	-1.9981735	-0.1074321	1.4213153
O	-0.7825499	-0.9863406	-1.3319499
C	-0.5245588	-0.4472851	-0.1123254
O	0.3935443	0.3355706	0.0842709
C	-4.0733808	-0.3788398	-0.4840143
H	-3.4373152	0.4851637	-0.3308947
H	-5.0446027	-0.1740345	-0.9256865
C	-3.7010611	-1.6281192	-0.1607829
C	-4.6677463	-2.7590309	-0.4451934
H	-4.2141542	-3.4873419	-1.1255761
H	-5.5930037	-2.4079181	-0.9152753
H	-4.9469368	-3.2676880	0.4832314
N	-2.4603744	-1.9533776	0.4002948
C	-0.7056297	-3.1676328	1.4563242
C	-0.7172721	-1.7601572	2.0265034
C	-1.4844831	-0.9632637	0.9710242
H	0.2928129	-1.3849599	2.2158641
H	-1.2697843	-1.7512776	2.9740538
C	-2.1008162	-3.3091580	0.8632129
H	-0.4956261	-3.9291418	2.2126458
H	0.0521193	-3.2516073	0.6682032
H	-2.8055455	-3.6368584	1.6361756
H	-2.1055805	-4.0321376	0.0414383
H	-1.5759519	-1.5639910	-1.2145702
O	1.2692968	4.6637867	-2.6588941
H	1.4381562	3.0073820	-3.8035137
C	1.7142405	3.5415038	-2.8772768
C	2.5924509	2.7608863	-1.9184244
C	2.9776161	3.5923841	-0.7008755
H	3.5435765	4.4849648	-0.9898493
H	3.5920768	3.0082450	-0.0079496
H	2.0862716	3.9275384	-0.1594041
C	3.8300456	2.2721005	-2.6618180
H	2.0078218	1.8941304	-1.5888018
H	3.5509684	1.6513198	-3.5203056
H	4.4693362	1.6723194	-2.0057696
H	4.4217145	3.1118398	-3.0432178
