37
-0.00430862 (energy)
H	3.3947946	-0.4776129	-1.1012682
O	2.5703018	-2.7136095	0.9361863
C	3.6025912	-2.0898487	0.3117465
O	4.6670175	-2.6440291	0.0787077
C	0.6548095	-1.1005962	-1.4400917
H	1.5007326	-1.6230878	-1.8713036
H	-0.2798068	-1.1894598	-1.9867975
C	0.7356788	-0.3900145	-0.3032833
C	-0.5219009	0.2766134	0.2148202
H	-0.7639768	-0.0912063	1.2174224
H	-1.3910215	0.0787979	-0.4222488
H	-0.3904188	1.3626557	0.2581417
N	1.9082570	-0.2489174	0.4484193
C	3.4769839	0.5169616	2.0674523
C	4.2130869	0.3114105	0.7551534
C	3.2856345	-0.6236272	-0.0215222
H	5.2194586	-0.0899877	0.9068035
H	4.3016615	1.2695986	0.2286266
C	2.0224550	0.6283696	1.6312304
H	3.8179425	1.4032767	2.6098661
H	3.6121212	-0.3545945	2.7189872
H	1.7933338	1.6627535	1.3500619
H	1.3476635	0.3153627	2.4341742
H	1.8375595	-2.0519156	0.9830344
O	4.4709697	0.4134632	-3.5259259
H	4.1788692	-1.5565910	-3.8663785
C	4.6400114	-0.6059269	-4.1873287
C	5.5172552	-0.6972976	-5.4210668
C	6.0598174	0.6665424	-5.8306187
H	5.2488925	1.3626108	-6.0722941
H	6.7088219	0.5807837	-6.7083233
H	6.6470521	1.1122435	-5.0203592
C	4.7192710	-1.3321723	-6.5539136
H	6.3569557	-1.3533869	-5.1638547
H	4.3541610	-2.3244436	-6.2669538
H	5.3363009	-1.4465214	-7.4511468
H	3.8455523	-0.7240082	-6.8136293
