37
-0.00629503 (energy)
H	-2.1297797	-1.5455866	1.3322971
O	0.1341955	0.0973860	-0.0839469
C	-1.0868512	0.1493240	0.5084815
O	-1.9267920	0.9895577	0.2205001
C	-0.4357074	-3.3074214	-0.0947577
H	-1.2724480	-2.7436291	-0.4903972
H	-0.1817769	-4.2134585	-0.6378117
C	0.2570228	-2.9245567	0.9902948
C	1.4234481	-3.7829176	1.4341409
H	2.3505993	-3.2002874	1.4281412
H	1.5784649	-4.6466436	0.7781641
H	1.2536453	-4.1680081	2.4448458
N	-0.0170823	-1.7635455	1.7229776
C	0.0000149	-0.1222206	3.4476524
C	-1.4301372	-0.2856812	2.9637382
C	-1.2605772	-0.9305502	1.5878452
H	-1.9682399	0.6666250	2.9422750
H	-1.9689235	-0.9691976	3.6313572
C	0.6689999	-1.4082396	2.9818519
H	0.0676409	0.0135117	4.5307144
H	0.4671074	0.7447681	2.9654440
H	0.5169633	-2.2003161	3.7241470
H	1.7424982	-1.2583925	2.8295925
H	0.6017386	-0.6751564	0.3179567
O	3.3020490	-0.2484830	-0.2692018
H	3.0516966	1.7398104	-0.0116033
C	3.5921444	0.9182020	-0.5138970
C	4.6233921	1.3535268	-1.5371447
C	5.3649494	0.1632310	-2.1333447
H	5.9045212	-0.3978936	-1.3622942
H	6.0892226	0.4918431	-2.8859197
H	4.6671187	-0.5285148	-2.6176325
C	5.5926776	2.3310629	-0.8828548
H	4.0780211	1.8708966	-2.3350214
H	5.0599972	3.1994518	-0.4798584
H	6.3304078	2.6939238	-1.6059836
H	6.1297273	1.8611928	-0.0512902
