31
-0.00331539 (energy)
C	-2.4932093	-0.1504961	-0.1556739
O	-3.4250704	-0.5579846	-0.8531196
O	-2.5765011	1.0132741	0.5794826
H	-3.4375907	1.4558053	0.4152782
N	0.0000000	0.0000000	0.0000000
C	-0.3396267	0.5786659	-2.3270231
H	-1.2158462	-0.0444884	-2.4515928
H	-0.0096876	1.1249106	-3.2013427
C	1.5560378	1.5937605	-1.0582325
H	2.4649997	1.0242707	-0.8244254
H	1.7194996	2.1103882	-2.0060842
H	1.4333110	2.3524490	-0.2751117
C	0.3008213	-1.1816692	2.0056065
C	0.6405500	0.1501964	1.3165317
C	-1.1685876	-0.8750045	0.0566700
C	-1.1193859	-1.5034465	1.4882865
H	1.0090739	-1.9543197	1.6853973
H	0.3389797	-1.1138722	3.0970243
H	1.7178448	0.2996225	1.2146629
H	0.2265693	1.0026469	1.8783459
H	-1.1174457	-1.6397318	-0.7278257
H	-1.8679305	-1.0276873	2.1302374
H	-1.3323871	-2.5749548	1.4596663
C	0.3424669	0.6958853	-1.1625136
C	4.4742916	2.8571742	1.0171134
H	4.2475982	3.2546543	0.0095407
O	4.1306842	1.7096723	1.3223763
C	5.2036901	3.7986336	1.9340158
H	4.6183290	4.7169647	2.0756748
H	5.3850888	3.3260178	2.9016446
H	6.1597188	4.0984137	1.4846225
