31
-0.003243 (energy)
C	-2.4167233	0.0152214	-0.6497637
O	-3.5647038	-0.1209338	-0.2202930
O	-2.0465283	-0.4037287	-1.9103946
H	-2.8014209	-0.8482759	-2.3540016
N	0.0000000	0.0000000	0.0000000
C	-0.8016134	-1.9390655	1.2094123
H	-1.7946262	-1.5417735	1.3757979
H	-0.6005562	-2.9195150	1.6216896
C	1.5353199	-1.9011101	0.3312935
H	2.3255225	-1.3145673	0.8178564
H	1.5541628	-2.9061372	0.7574534
H	1.7919692	-1.9789188	-0.7326733
C	0.5483681	2.1943902	-0.6270862
C	0.9798751	0.7311932	-0.8193414
C	-1.2756320	0.7067191	0.0880483
C	-0.9924709	2.1083590	-0.5460742
H	0.9601478	2.5804483	0.3123503
H	0.8850846	2.8440045	-1.4406392
H	1.9983619	0.5512462	-0.4678116
H	0.9254654	0.4393055	-1.8802505
H	-1.6012369	0.7882700	1.1321689
H	-1.4230858	2.1565443	-1.5515670
H	-1.4356923	2.9107852	0.0488926
C	0.1702198	-1.2803284	0.5336311
C	4.5685975	-0.4047898	2.9238783
H	4.4144996	-1.4912200	2.7806786
O	4.1385922	0.3976493	2.0876971
C	5.3136682	-0.0166385	4.1701874
H	6.3068429	-0.4852470	4.1777321
H	5.4193793	1.0686365	4.2300211
H	4.7826132	-0.3852791	5.0578235
