31
-0.00315799 (energy)
C	-0.1481511	-0.4533672	0.1096585
O	1.0678526	-0.3386200	0.2799837
O	-0.9321830	0.5903821	-0.3349032
H	-0.3891636	1.4025197	-0.4340724
N	-2.2170751	-1.5560705	0.9852013
C	-1.1719721	-0.8562347	3.0547970
H	-0.1588780	-0.9636050	2.6891314
H	-1.2807674	-0.5334334	4.0822409
C	-3.6617509	-0.9259587	2.8817913
H	-4.2162722	-1.8729869	2.9107677
H	-3.5954289	-0.5457532	3.9031099
H	-4.2557068	-0.2154975	2.2932257
C	-2.8190220	-2.7569742	-0.9395800
C	-3.3691853	-1.7583112	0.0919713
C	-0.9459372	-1.7402275	0.2889714
C	-1.3434030	-2.3287201	-1.1047945
H	-2.8795460	-3.7745793	-0.5371360
H	-3.3668550	-2.7304764	-1.8863758
H	-4.2252325	-2.1592993	0.6393846
H	-3.6803758	-0.8197040	-0.3936870
H	-0.2931947	-2.4205599	0.8492676
H	-1.2628773	-1.5533309	-1.8735949
H	-0.6868715	-3.1546950	-1.3894881
C	-2.2735749	-1.1057733	2.3069494
C	5.2663686	0.8453485	0.2305115
H	5.0735853	0.2967465	-0.7110050
O	6.3691925	1.3672719	0.4289743
C	4.1166411	0.8932384	1.1974196
H	3.8146522	-0.1252952	1.4756983
H	4.3940922	1.4517058	2.0939193
H	3.2447439	1.3641332	0.7242740
