31
-0.00300252 (energy)
C	2.6065134	2.4274852	-0.5067142
O	3.6397314	2.9762045	-0.1165728
O	1.5803697	3.1279598	-1.1051439
H	1.7873916	4.0878089	-1.1153282
N	0.9825274	0.5890833	-0.0108070
C	1.3042937	1.5127546	2.2047142
H	2.3311604	1.8095440	2.0342438
H	0.9021921	1.7153480	3.1890659
C	-0.9043393	0.5327722	1.5759335
H	-1.0587929	-0.5525336	1.5171830
H	-1.1675501	0.8539519	2.5856910
H	-1.6070035	1.0028183	0.8764565
C	1.2262845	-0.6423090	-1.9941246
C	0.1683368	0.0225329	-1.0981126
C	2.3315536	0.9286283	-0.4572137
C	2.4375719	0.3117626	-1.8907836
H	1.4816260	-1.6299562	-1.5935023
H	0.8856113	-0.7694691	-3.0261214
H	-0.5571442	-0.6970284	-0.7118765
H	-0.3808508	0.8034397	-1.6478986
H	3.0814141	0.5098888	0.2248591
H	2.3561912	1.1023758	-2.6438273
H	3.3952119	-0.1943530	-2.0360119
C	0.5280450	0.9131777	1.2703590
C	7.0554688	0.6304863	-2.7243206
H	7.4326841	1.1886771	-1.8464171
O	6.1385970	-0.1878313	-2.5912248
C	7.7305371	0.9462357	-4.0295651
H	8.8069716	0.7410346	-3.9572590
H	7.2971842	0.3528526	-4.8374503
H	7.6264366	2.0148910	-4.2596788
