31
-0.00278702 (energy)
C	0.4034942	-3.0565602	1.8541812
O	0.8911807	-4.1850244	1.9520233
O	-0.8927895	-2.7780696	2.2334503
H	-1.3429442	-3.5999122	2.5270617
N	0.3785506	-0.9788829	0.4593296
C	0.2876275	-2.6773665	-1.2646551
H	0.8673510	-3.4043622	-0.7105817
H	-0.0387741	-2.9747805	-2.2529287
C	-0.8541167	-0.4853647	-1.6186871
H	-0.2919701	0.4260751	-1.8604820
H	-1.1463538	-0.9574511	-2.5587820
H	-1.7680132	-0.1782763	-1.0948184
C	1.1234023	0.5449651	2.0817896
C	-0.0078805	0.3038257	1.0687957
C	1.1471977	-1.8127772	1.3803310
C	1.4588886	-0.8744682	2.5924823
H	1.9889248	0.9827242	1.5715131
H	0.8277363	1.2179991	2.8922537
H	-0.0650217	1.0945799	0.3173224
H	-0.9842804	0.2389278	1.5748772
H	2.0628278	-2.1775484	0.8992693
H	0.8120177	-1.1302951	3.4379866
H	2.4966555	-0.9781713	2.9189849
C	-0.0317598	-1.4490275	-0.7911052
C	5.6999913	-0.1833000	0.6758734
H	5.8504647	-0.8325734	-0.2075205
O	4.6284246	0.4129964	0.8313969
C	6.8648331	-0.0994474	1.6220184
H	7.7525945	0.2757975	1.0955987
H	6.6295404	0.5593312	2.4606034
H	7.1185457	-1.0994515	1.9980969
