31
-0.0027628 (energy)
C	-2.4167233	0.5551012	0.3380640
O	-3.5647038	0.2512463	0.0054147
O	-2.0465283	1.8563146	0.6055579
H	-2.8014209	2.4627632	0.4423723
N	0.0000000	0.0000000	0.0000000
C	-0.8016134	-0.0778491	-2.2839861
H	-1.7946262	-0.4205893	-2.0231140
H	-0.6005562	0.0553330	-3.3392190
C	1.5353199	0.6636464	-1.8120564
H	2.3255225	-0.0510009	-1.5473769
H	1.5541628	0.7970946	-2.8955153
H	1.7919692	1.6239730	-1.3474574
C	0.5483681	-0.5541224	2.2139408
C	0.9798751	0.3439739	1.0429026
C	-1.2756320	-0.4296116	0.5680125
C	-0.9924709	-0.5812653	2.0989295
H	0.9601478	-1.5607274	2.0785586
H	0.8850846	-0.1743720	3.1832998
H	1.9983619	0.1295137	0.7112990
H	0.9254654	1.4086920	1.3205749
H	-1.6012369	-1.3746220	0.1165775
H	-1.4230858	0.2654243	2.6434057
H	-1.4356923	-1.4977347	2.4963677
C	0.1702198	0.1780260	-1.3756125
C	1.3782088	2.3207879	-6.3996431
H	1.9387277	2.8504253	-7.1932964
O	1.9862772	1.7435866	-5.4912910
C	-0.1188589	2.3675655	-6.5248557
H	-0.4313647	1.9321642	-7.4834029
H	-0.5884054	1.8221788	-5.7034812
H	-0.4656184	3.4094692	-6.5220354
