31
-0.00244387 (energy)
C	1.4336575	-1.3068176	1.5810851
O	2.5891201	-1.6739634	1.8068124
O	0.3397539	-2.0955359	1.8692724
H	0.6328900	-2.9664159	2.2155544
N	0.0000000	0.0000000	0.0000000
C	1.3914666	-1.2210985	-1.5614019
H	2.2591092	-1.2451151	-0.9147034
H	1.5024546	-1.6860876	-2.5325583
C	-0.9631721	-0.6588477	-2.1724184
H	-1.2557458	0.3565483	-2.4700216
H	-0.7036763	-1.2111150	-3.0777965
H	-1.8436814	-1.1363127	-1.7244465
C	-0.8231575	1.5987934	1.5084974
C	-1.2772904	0.5615404	0.4683170
C	1.0337873	0.0576733	1.0307275
C	0.4092672	0.9361428	2.1643729
H	-0.5347409	2.5272506	1.0026048
H	-1.6040391	1.8349534	2.2376735
H	-1.8315376	1.0176017	-0.3551437
H	-1.9175493	-0.2069351	0.9300538
H	1.9543628	0.4997418	0.6307612
H	0.0928192	0.3000268	2.9974298
H	1.1312318	1.6606725	2.5492655
C	0.2126155	-0.6476958	-1.2199437
C	4.9273096	1.7312709	4.4492035
H	5.5015797	0.8886905	4.8791511
O	4.7750594	2.7724346	5.0979024
C	4.3771321	1.5008797	3.0696011
H	3.7126512	0.6265160	3.0692609
H	3.8276514	2.3796498	2.7254922
H	5.1936102	1.2786487	2.3697510
