31
-0.00195024 (energy)
C	1.9276119	0.7606430	-2.3940525
O	1.2468183	0.3891510	-3.3528833
O	3.1114518	0.1441338	-2.0473635
H	3.2752437	-0.6267002	-2.6332469
N	1.8145252	1.7109548	-0.0816739
C	0.0609674	0.0444348	0.0322691
H	-0.2174757	0.1300129	-1.0102016
H	-0.5084526	-0.6590906	0.6259785
C	1.3969862	0.5835728	2.0714294
H	1.2315220	1.5062087	2.6428843
H	0.7705035	-0.1969969	2.5076369
H	2.4461109	0.2942754	2.2114031
C	3.0177482	3.6915308	-0.4543212
C	2.9641071	2.4549304	0.4578452
C	1.6203877	1.9625411	-1.5076670
C	2.5970921	3.1396954	-1.8351453
H	2.2967978	4.4395113	-0.1051793
H	4.0081969	4.1559756	-0.4777238
H	2.8036763	2.7207644	1.5051578
H	3.8969467	1.8728262	0.3896392
H	0.5764734	2.2273400	-1.7149863
H	3.4741114	2.7590237	-2.3687117
H	2.1171680	3.8900814	-2.4683217
C	1.0560248	0.7611143	0.6078607
C	4.2386182	0.7675171	5.3901462
H	3.9858517	-0.1701399	5.9207037
O	4.3925253	0.7634193	4.1636439
C	4.3705352	1.9864336	6.2595820
H	5.1489017	1.8270011	7.0177204
H	4.6199797	2.8615156	5.6557728
H	3.4326712	2.1670138	6.8014448
