31
-0.00134843 (energy)
C	0.6433316	-0.3725705	-3.0778350
O	1.1202952	0.7341167	-3.3397353
O	-0.5610910	-0.7981327	-3.5974665
H	-0.9674175	-0.0849805	-4.1365258
N	0.4113194	-2.1005863	-1.2825334
C	-0.0111305	-0.0795483	-0.0167617
H	0.6436777	0.5429228	-0.6128787
H	-0.5111483	0.4042449	0.8124574
C	-1.1577687	-2.2049539	0.6170066
H	-0.6305070	-3.0103171	1.1448146
H	-1.6188380	-1.5592629	1.3670365
H	-1.9599146	-2.6680088	0.0287120
C	1.4565010	-3.8929175	-2.3800021
C	0.1608916	-3.5037838	-1.6491966
C	1.3145511	-1.4420332	-2.2232362
C	1.8508669	-2.5996264	-3.1283489
H	2.2267787	-4.1617877	-1.6482060
H	1.3197439	-4.7396701	-3.0593788
H	-0.0130172	-4.1167899	-0.7619262
H	-0.7125723	-3.6038008	-2.3130825
H	2.1248792	-0.9318207	-1.6885323
H	1.3578945	-2.5678442	-4.1054544
H	2.9277918	-2.5104317	-3.2914303
C	-0.2203880	-1.3968083	-0.2536408
C	5.0829223	1.5722487	1.2439918
H	5.1971876	2.5180336	0.6809490
O	5.8317305	1.3230812	2.1954192
C	3.9849276	0.6641496	0.7656178
H	4.1499603	0.3935807	-0.2858591
H	3.9443593	-0.2408153	1.3755108
H	3.0185599	1.1836375	0.8112162
