31
-0.00457657 (energy)
C	2.8935571	1.4326816	-1.5868543
O	3.5384289	1.6666592	-2.6116652
O	3.4970594	1.0527930	-0.4065054
H	4.4656561	0.9581372	-0.5373977
N	0.7437825	0.4867900	-0.7227165
C	1.3165993	-1.1623881	-2.4012067
H	1.8119052	-0.4591624	-3.0582799
H	1.2749255	-2.1896687	-2.7397859
C	0.0901697	-1.8602505	-0.3414375
H	-0.9791837	-1.6511700	-0.2074051
H	0.1832799	-2.8470941	-0.7991677
H	0.5436434	-1.9051156	0.6567093
C	-0.0689835	2.3980410	0.3708209
C	0.2388732	0.9082259	0.5939374
C	1.3836850	1.5863822	-1.4409526
C	1.0489848	2.8570673	-0.5922942
H	-1.0510203	2.5051551	-0.1038101
H	-0.0749847	2.9718228	1.3024774
H	-0.6510194	0.3399016	0.8738805
H	0.9948863	0.7749663	1.3841102
H	0.9911426	1.6614514	-2.4622909
H	1.9304046	3.1669809	-0.0214881
H	0.7492585	3.6929794	-1.2292664
C	0.7600919	-0.8213326	-1.2141705
C	7.5750935	1.5015702	1.0143559
H	7.0272230	2.1450863	1.7287143
O	7.0193248	0.5165933	0.5154033
C	8.9894340	1.9183336	0.7227617
H	9.5759798	1.9389321	1.6509786
H	9.4517427	1.2305283	0.0115858
H	9.0061888	2.9376392	0.3146579
