31
-0.00356336 (energy)
C	-0.2922558	-0.3386044	0.1986183
O	0.8552745	-0.4404074	0.6386786
O	-0.6438236	0.6188599	-0.7295067
H	0.1239603	1.1995343	-0.9234068
N	-2.7127536	-0.5665186	0.7921007
C	-1.8773098	0.5858127	2.7515401
H	-0.8945830	0.1336447	2.7142337
H	-2.0596340	1.2735489	3.5672942
C	-4.2080029	1.0074782	1.9616930
H	-5.0145457	0.2817373	2.1289798
H	-4.2077202	1.7065170	2.8003772
H	-4.4550510	1.5691121	1.0520321
C	-3.3049471	-2.2179681	-0.7671666
C	-3.7025351	-0.8193017	-0.2674051
C	-1.4537593	-1.2644614	0.5425998
C	-1.7632173	-2.2140363	-0.6613227
H	-3.7320557	-2.9812915	-0.1068181
H	-3.6499815	-2.4156932	-1.7865298
H	-4.7193414	-0.7966102	0.1311667
H	-3.6338924	-0.0759138	-1.0775592
H	-1.1377115	-1.8219356	1.4326521
H	-1.3264065	-1.8069893	-1.5790786
H	-1.3422463	-3.2096947	-0.5008042
C	-2.8585012	0.3316097	1.8528085
C	3.2724511	0.6399551	2.7682589
H	2.6592581	-0.2812181	2.7723768
O	3.0870830	1.5116523	3.6248771
C	4.3013682	0.7263251	1.6760373
H	3.8154211	0.6600499	0.6934337
H	4.8575704	1.6633591	1.7480310
H	4.9960343	-0.1214122	1.7438147
