37
-0.00394818 (energy)
H	2.2928412	0.6102000	0.2250553
O	0.2921445	2.2178476	2.0259916
C	0.9257946	2.1623498	0.8259785
O	1.1983331	3.1604524	0.1748714
C	2.5803502	-0.2078166	2.9192370
H	3.0448442	0.6485228	2.4444157
H	3.1062195	-0.6088756	3.7811562
C	1.4285361	-0.7479216	2.4886437
C	0.8636165	-1.9293233	3.2498839
H	-0.1351228	-1.6948323	3.6328160
H	1.4840937	-2.2064114	4.1092956
H	0.7965284	-2.8078514	2.6000072
N	0.7022790	-0.2682931	1.3920982
C	-0.8966824	-0.1080196	-0.3647107
C	0.4378214	0.3889763	-0.8922732
C	1.2147230	0.7197622	0.3823611
H	0.3206958	1.2385330	-1.5715651
H	0.9423716	-0.4186009	-1.4367440
C	-0.4988426	-0.9354579	0.8499601
H	-1.4525069	-0.6929487	-1.1029091
H	-1.5228810	0.7385048	-0.0587015
H	-0.2491169	-1.9574308	0.5422087
H	-1.3099226	-0.9683230	1.5841975
H	0.2110734	1.2832134	2.3371688
O	4.2307266	-0.7525380	-1.2658381
H	4.6176144	-2.2685933	0.0125352
C	4.8960455	-1.7173185	-0.9028858
C	6.1590115	-2.2006702	-1.5894010
C	6.4336335	-1.4296577	-2.8748147
H	5.6175435	-1.5517472	-3.5956536
H	7.3597960	-1.7743845	-3.3463157
H	6.5378724	-0.3581235	-2.6724211
C	6.0368854	-3.6952298	-1.8624638
H	6.9843866	-2.0316562	-0.8880464
H	5.8675501	-4.2501263	-0.9331258
H	6.9493875	-4.0843344	-2.3258929
H	5.1948204	-3.9094604	-2.5300953
