37
-0.00384138 (energy)
H	-1.7573423	-0.7590581	-1.5362145
O	-1.0751726	-0.1945802	1.4715586
C	-0.6724391	-0.0471599	0.1828783
O	0.5044898	0.0353812	-0.1372024
C	-3.3061796	-2.4546845	0.1179869
H	-2.2890827	-2.6216515	-0.2169206
H	-3.8712335	-3.3488631	0.3658786
C	-3.8478665	-1.2309023	0.2308231
C	-5.2725370	-1.1226264	0.7337359
H	-5.3101587	-0.5218417	1.6484740
H	-5.7065930	-2.1005752	0.9694684
H	-5.9120304	-0.6563987	-0.0227904
N	-3.1659680	-0.0442267	-0.0636598
C	-2.7082790	2.2510096	-0.5008712
C	-1.8898771	1.4126034	-1.4670600
C	-1.8553321	0.0401560	-0.7940942
H	-0.8997351	1.8417613	-1.6469060
H	-2.4132695	1.3426927	-2.4285033
C	-3.8004400	1.2895771	-0.0523316
H	-3.1138788	3.1551616	-0.9634918
H	-2.0929981	2.5525163	0.3552205
H	-4.6340129	1.3104935	-0.7638237
H	-4.1700261	1.5537097	0.9434975
H	-2.0617212	-0.2496269	1.4463282
O	3.1381701	-1.2661781	-4.9978967
H	1.6763360	-2.0343700	-3.8337377
C	2.5650880	-1.3846228	-3.9195958
C	2.9423266	-0.6353394	-2.6561559
C	4.2129528	0.1846890	-2.8438489
H	5.0664251	-0.4539404	-3.0973339
H	4.4592987	0.7370327	-1.9310746
H	4.0921299	0.9114904	-3.6545128
C	3.0972488	-1.6319056	-1.5133343
H	2.1103040	0.0415981	-2.4298768
H	2.1730725	-2.2004962	-1.3621508
H	3.3343792	-1.1185558	-0.5757467
H	3.8955374	-2.3532566	-1.7209108
