37
-0.00554018 (energy)
H	0.6937187	-0.9607808	-2.1494257
O	-0.2496401	-1.6488654	0.7604375
C	-0.1023040	-0.6698555	-0.1693236
O	0.0767524	0.5025515	0.1270331
C	1.7863780	-3.4514148	-1.3663125
H	2.1821998	-2.4670252	-1.1453390
H	2.5130814	-4.2589841	-1.3713777
C	0.4861383	-3.6785222	-1.6145031
C	0.0477329	-5.1026456	-1.8865402
H	-0.6978982	-5.4201270	-1.1501008
H	0.8805073	-5.8125008	-1.8322202
H	-0.3861096	-5.1857611	-2.8883010
N	-0.4959847	-2.6808605	-1.6113187
C	-2.5677669	-1.5474407	-1.9143384
C	-1.4472998	-0.5958882	-2.2955586
C	-0.2253219	-1.2026427	-1.6054083
H	-1.6608252	0.4332522	-1.9919486
H	-1.3059668	-0.6103854	-3.3832236
C	-1.9016816	-2.9139227	-2.0004384
H	-3.4359742	-1.4652425	-2.5742470
H	-2.8997399	-1.3510431	-0.8878923
H	-1.9450433	-3.2881754	-3.0297862
H	-2.3923243	-3.6314254	-1.3352353
H	-0.3632509	-2.4914287	0.2563299
O	1.0031600	-1.3442117	5.3504374
H	0.3029202	-0.7412045	3.5536651
C	1.1615855	-0.8476404	4.2398054
C	2.4989296	-0.4099358	3.6741724
C	3.6146818	-0.5295468	4.7051701
H	3.4205912	0.1028525	5.5786215
H	4.5767219	-0.2318047	4.2753384
H	3.7096220	-1.5617791	5.0594261
C	2.3786511	1.0200408	3.1604737
H	2.7185162	-1.0753744	2.8311532
H	1.5947981	1.0975215	2.3990113
H	3.3192903	1.3550175	2.7112325
H	2.1192003	1.7121310	3.9694214
