37
-0.00379172 (energy)
H	-1.7573422	-1.3810668	1.0142874
O	-1.0751726	1.4829908	-0.0639094
C	-0.6724391	0.1882892	0.0146870
O	0.5044898	-0.1412618	-0.0110187
C	-3.3061793	0.5424461	2.3969044
H	-2.2890824	0.2416201	2.6194908
H	-3.8712331	0.9418443	3.2344526
C	-3.8478664	0.4410604	1.1721205
C	-5.2725369	0.9175309	0.9781597
H	-5.3101586	1.7140469	0.2276597
H	-5.7065928	1.3195012	1.9003168
H	-5.9120303	0.0915384	0.6503846
N	-3.1659680	-0.0550128	0.0546096
C	-2.7082792	-0.8841457	-2.1298360
C	-1.8898772	-1.6900681	-1.1363901
C	-1.8553321	-0.7890031	0.0983473
H	-0.8997352	-1.9417044	-1.5277983
H	-2.4132696	-2.6247650	-0.9005885
C	-3.8004401	-0.2754694	-1.2608978
H	-3.1138791	-1.4967425	-2.9399185
H	-2.0929984	-0.0934161	-2.5754210
H	-4.6340130	-0.9797844	-1.1579470
H	-4.1700263	0.6593647	-1.6939416
H	-2.0617212	1.4677025	-0.0053177
O	4.8893973	3.9915840	2.2320232
H	3.1761175	4.4004182	1.2421389
C	3.9039347	3.6455426	1.5883589
C	3.5443241	2.2071560	1.2693929
C	4.6300325	1.2393443	1.7240839
H	5.5825926	1.4438569	1.2227644
H	4.3457929	0.2043361	1.5075369
H	4.8001681	1.3226982	2.8030281
C	3.2871287	2.0780498	-0.2273932
H	2.6178695	1.9853266	1.8117781
H	2.4868006	2.7546940	-0.5465816
H	2.9886936	1.0569979	-0.4866585
H	4.1815177	2.3317895	-0.8073798
