37
-0.00363454 (energy)
H	1.5103102	-0.7610273	-1.6792603
O	2.4517419	1.7587314	-0.0682941
C	1.7755607	1.3119357	-1.1581457
O	1.6775967	1.9623666	-2.1885676
C	3.6042884	-1.4920495	0.0789461
H	3.7037732	-1.0590523	-0.9095595
H	4.4498580	-2.0830876	0.4195011
C	2.5179875	-1.3162587	0.8489119
C	2.5050941	-1.9516195	2.2238597
H	2.3868095	-1.1857568	2.9975303
H	3.4326470	-2.4925561	2.4415558
H	1.6824636	-2.6692501	2.3071508
N	1.4045579	-0.5578633	0.4681028
C	-0.7771371	0.3949336	0.4345190
C	-0.3920051	0.0433397	-0.9917637
C	1.1317184	-0.0636659	-0.9246459
H	-0.7517368	0.7862986	-1.7097522
H	-0.8220219	-0.9294150	-1.2601556
C	0.1651933	-0.4645177	1.2662117
H	-1.8290484	0.1894540	0.6519598
H	-0.5904679	1.4581830	0.6269385
H	-0.2630976	-1.4638472	1.4055305
H	0.3474394	-0.0109079	2.2455279
H	2.3876047	1.0407802	0.6080026
O	4.4845113	5.8278380	-5.9580844
H	4.5367498	4.0235813	-6.8659792
C	4.3710147	4.6063355	-5.9427497
C	3.9396157	3.7958924	-4.7356491
C	3.7961030	4.6661604	-3.4929891
H	4.7460906	5.1434771	-3.2280179
H	3.4625246	4.0712775	-2.6363874
H	3.0611264	5.4618140	-3.6565715
C	4.9437896	2.6726918	-4.5049076
H	2.9644987	3.3589579	-4.9804822
H	5.0241920	2.0319291	-5.3899004
H	4.6415230	2.0447383	-3.6604324
H	5.9433533	3.0702567	-4.2963061
