37
-0.00309975 (energy)
H	0.6942311	-2.1174412	1.0290102
O	0.8647101	-0.3748760	-1.5719691
C	0.5056777	-0.4040528	-0.2624392
O	-0.3793789	0.3031360	0.1968921
C	0.9919801	-3.8069306	-1.2220782
H	0.0697628	-3.3832442	-0.8419041
H	0.8864708	-4.7271193	-1.7898917
C	2.1942123	-3.2434509	-1.0197720
C	3.4102488	-3.9162355	-1.6222229
H	3.9214808	-3.2355554	-2.3110042
H	3.1500039	-4.8168826	-2.1892023
H	4.1108190	-4.2172053	-0.8365571
N	2.3901700	-2.0548787	-0.3064689
C	3.4436945	-0.2611687	0.8517337
C	2.1781876	-0.6325110	1.6046113
C	1.3580505	-1.3856691	0.5568440
H	1.6712871	0.2458556	2.0150090
H	2.4275592	-1.3040285	2.4353208
C	3.7217956	-1.5023680	0.0148109
H	4.2751131	-0.0131670	1.5175101
H	3.2587784	0.6017786	0.2009666
H	4.2941741	-2.2300078	0.6016887
H	4.2832702	-1.2473011	-0.8894693
H	1.5827882	-1.0462399	-1.6748244
O	3.6920300	2.6778966	-2.8453399
H	2.3854074	1.2083539	-3.3095874
C	3.0577491	2.0122542	-3.6576163
C	3.1693154	2.1547947	-5.1633554
C	4.0635993	3.3247712	-5.5552448
H	3.6671900	4.2740497	-5.1780881
H	4.1523113	3.4005309	-6.6439676
H	5.0711331	3.2008073	-5.1435128
C	1.7728481	2.3108267	-5.7538803
H	3.6135101	1.2247574	-5.5367585
H	1.1404069	1.4547809	-5.4941547
H	1.8150390	2.3797535	-6.8458043
H	1.2785533	3.2111857	-5.3721392
