37
-0.00522374 (energy)
H	-2.0108546	-0.7728662	-1.0194390
O	0.6360542	-1.5575710	-2.5056429
C	-0.3515510	-0.6329974	-2.3855437
O	-0.7001594	0.0866851	-3.3101819
C	-1.5108211	-3.5357111	-0.6629525
H	-1.9997346	-3.0649906	-1.5078861
H	-1.7748761	-4.5748033	-0.4872996
C	-0.6300403	-2.8950630	0.1229194
C	0.0072706	-3.6663014	1.2601780
H	1.0962808	-3.6838899	1.1468173
H	-0.3319907	-4.7073282	1.2992074
H	-0.2413219	-3.2065689	2.2222071
N	-0.2438990	-1.5620226	-0.0609364
C	0.7127542	0.5861794	0.3116034
C	-0.6526870	0.7797380	-0.3242684
C	-0.9343816	-0.5797430	-0.9646963
H	-0.6615659	1.6127634	-1.0334173
H	-1.3962673	0.9851086	0.4555467
C	0.6325028	-0.8267272	0.8733956
H	0.9293822	1.3295474	1.0839350
H	1.4985624	0.6474352	-0.4507108
H	0.1793799	-0.8084425	1.8713173
H	1.6268036	-1.2798286	0.9374312
H	0.7029150	-2.0037284	-1.6262010
O	3.7512547	2.1137981	-2.2755986
H	2.2689511	1.0268438	-3.1144372
C	3.0285713	1.8209846	-3.2227912
C	3.1337334	2.4300653	-4.6077016
C	4.1574146	3.5580018	-4.6524464
H	3.8849874	4.3716082	-3.9710175
H	4.2381199	3.9718531	-5.6629613
H	5.1485769	3.1973779	-4.3565372
C	1.7577389	2.9214920	-5.0416665
H	3.4559803	1.6280681	-5.2819906
H	1.0300457	2.1025414	-5.0356542
H	1.7913944	3.3350768	-6.0549009
H	1.3822912	3.6984126	-4.3662900
