11
-0.00477996 (energy)
O	-0.0021291	-0.0551173	-0.0168120
H	0.0337910	0.8747509	0.2668180
C	-1.2777257	-0.3449914	-0.4054240
H	-1.3700915	-1.3740730	-0.7318282
C	-2.2877909	0.5252743	-0.3877427
H	-3.2772009	0.2191548	-0.7132153
H	-2.1656437	1.5496681	-0.0556583
C	2.9471863	-0.5852825	0.1262390
H	2.8599284	-1.1501831	1.0680482
H	2.7061081	-1.1485813	-0.7893655
O	3.2893024	0.5902808	0.0989178
