11
0.00314636 (energy)
C	0.0794443	0.0003187	-0.0156656
H	-0.5882313	0.7275231	-0.4672813
H	-0.3576987	-0.7313178	0.6538093
C	1.3839398	0.0274221	-0.2903719
H	1.8485015	0.7462169	-0.9548992
O	2.2999257	-0.8419524	0.2266879
H	1.8403267	-1.4660597	0.8146077
C	2.4376578	1.5330368	2.1734248
H	2.0396402	0.7802185	2.8724083
H	3.5295512	1.5153514	2.0277819
O	1.7146653	2.3358919	1.5968450
