11
0.0185607 (energy)
C	-0.0819989	0.0179496	0.0013714
H	0.9763465	-0.2137224	-0.0163285
C	-0.5733764	1.2538856	0.0958000
H	0.0982569	2.1043328	0.1607766
H	-1.6381024	1.4556368	0.1112170
O	-0.8436208	-1.1110695	-0.0848897
H	-1.7822909	-0.8562954	-0.0654070
O	-1.0625357	0.8714244	-2.3258257
C	-0.8083590	0.6148557	-3.4959991
H	0.1999982	0.7445536	-3.9204111
H	-1.5727948	0.2389196	-4.1946162
