11
-0.00448118 (energy)
O	-0.0021291	-0.0551173	-0.0168120
H	0.0337910	0.8747509	0.2668180
C	-1.2777257	-0.3449914	-0.4054240
H	-1.3700915	-1.3740730	-0.7318282
C	-2.2877909	0.5252743	-0.3877427
H	-3.2772009	0.2191548	-0.7132153
H	-2.1656437	1.5496681	-0.0556583
O	2.6170351	1.6046992	-1.0725944
C	3.0394934	0.4558782	-1.1110421
H	2.7366855	-0.2556455	-1.8957540
H	3.7477493	0.0648701	-0.3632172
