11
0.119872 (energy)
C	0.0794443	0.0003187	-0.0156656
H	-0.5882313	0.7275231	-0.4672813
H	-0.3576987	-0.7313178	0.6538093
C	1.3839398	0.0274221	-0.2903719
H	1.8485015	0.7462169	-0.9548992
O	2.2999257	-0.8419524	0.2266879
H	1.8403267	-1.4660597	0.8146077
O	1.8172793	0.4867228	2.9068902
C	1.4691263	0.8016648	1.7758111
H	2.0837691	0.5802811	0.8887177
H	0.5203430	1.3253059	1.5774019
