11
-0.00368361 (energy)
C	-0.0819989	0.0179496	0.0013714
H	0.9763465	-0.2137224	-0.0163285
C	-0.5733764	1.2538856	0.0958000
H	0.0982569	2.1043328	0.1607766
H	-1.6381024	1.4556368	0.1112170
O	-0.8436208	-1.1110695	-0.0848897
H	-1.7822909	-0.8562954	-0.0654070
O	1.1992325	-4.6454177	0.9148978
C	0.2808552	-3.8389407	0.8379762
H	0.3390687	-2.8369680	1.2922813
H	-0.6587421	-4.0669388	0.3098382
