11
-0.00350792 (energy)
C	0.0794443	0.0003187	-0.0156656
H	-0.5882313	0.7275231	-0.4672813
H	-0.3576987	-0.7313178	0.6538093
C	1.3839398	0.0274221	-0.2903719
H	1.8485015	0.7462169	-0.9548992
O	2.2999257	-0.8419524	0.2266879
H	1.8403267	-1.4660597	0.8146077
O	6.7214890	-0.5684405	0.8805630
C	5.7913831	-0.5655881	0.0839239
H	5.0778617	0.2711244	0.0166124
H	5.6122781	-1.3995763	-0.6133141
