11
-268.221 (energy)
C	-0.8374757	1.1381203	0.0606112
H	-1.3554654	1.5543060	-0.7952838
C	-0.0476557	0.0652729	0.0050295
H	0.1092195	-0.4481832	-0.9385418
H	0.4582084	-0.3290105	0.8786568
O	-1.0955131	1.8487047	1.1966920
H	-0.6121095	1.4411382	1.9360170
C	2.3060320	3.4172902	0.3057044
H	3.0335173	4.2442367	0.2800916
H	2.7320051	2.4151996	0.4733865
O	1.1041473	3.5997711	0.1576750
