11
-268.226 (energy)
C	0.2849696	0.9589687	-0.9997642
H	0.8945268	1.8398678	-0.8368622
C	0.0154492	0.0540603	-0.0582728
H	0.4142031	0.1747006	0.9442316
H	-0.5981547	-0.8183874	-0.2503873
O	-0.1691800	0.8945172	-2.2849829
H	-0.7092060	0.0915517	-2.3850291
C	2.2906252	-1.4778494	-2.4736516
H	3.2372059	-1.0305925	-2.8166932
H	2.1712707	-1.5569469	-1.3812900
O	1.4286605	-1.8614669	-3.2544162
