29
-0.00169876 (energy)
C	-0.1939371	-0.0023227	0.5938271
C	0.2797954	-0.0384873	-0.6580304
H	-1.1107341	0.5287212	0.8261283
H	0.3212814	-0.5002366	1.4113204
H	-0.2328473	0.4574335	-1.4729916
C	1.5296034	-0.7620973	-0.9750391
O	2.2173947	-1.3653803	-0.1689970
O	1.7617664	-0.6259966	-2.3042475
C	2.9434342	-1.2760145	-2.7939471
C	4.1440361	-0.3599827	-2.6477147
H	2.7732759	-1.4931089	-3.8535943
H	3.1081636	-2.2361637	-2.2913862
H	3.9645243	0.5932134	-3.1557680
H	5.0392174	-0.8231988	-3.0721263
H	4.3358632	-0.1286767	-1.5951810
C	5.8554713	-1.2857992	1.6382404
H	5.3918538	-2.1909236	1.2574216
H	6.9388499	-1.2588230	1.6495909
H	4.0133353	-0.3800037	2.0193403
C	5.0964029	-0.2704083	2.0654517
C	5.5547181	0.9929004	2.5969715
C	6.8221838	1.3861296	2.7624179
H	4.7650488	1.6842483	2.8878462
H	7.6760987	0.7750387	2.5053104
O	7.1216401	2.6193172	3.2812647
C	8.5247810	2.8465985	3.3768910
H	8.6796917	3.8446666	3.7968143
H	8.9923221	2.8135308	2.3868568
H	8.9923212	2.1156875	4.0454813
