29
-0.00276213 (energy)
C	0.2950980	-0.2688245	2.6016349
C	-0.7473306	0.0318135	1.8168820
H	0.1818369	-0.3254591	3.6788779
H	1.2809245	-0.4642426	2.1873627
H	-1.7297608	0.2267698	2.2288585
C	-0.5932786	0.1093155	0.3484177
O	0.4451006	-0.0820127	-0.2613964
O	-1.8007048	0.4309279	-0.1787499
C	-1.8391587	0.5448244	-1.6085109
C	-1.4529404	1.9493923	-2.0327369
H	-2.8685748	0.3369385	-1.9183850
H	-1.2013067	-0.2078938	-2.0861611
H	-2.0995555	2.6886932	-1.5487448
H	-1.5361584	2.0636297	-3.1172038
H	-0.4255271	2.1812791	-1.7347811
C	3.1214295	2.0630092	-4.4707809
H	2.7774562	2.6258733	-5.3333821
H	2.5509006	1.1813341	-4.2029907
H	4.7178881	3.3645513	-4.1294953
C	4.2019052	2.4659708	-3.7926162
C	4.7845021	1.8330131	-2.6313840
C	4.3550674	0.7264192	-2.0153427
H	5.6683204	2.3280116	-2.2313974
H	3.4891855	0.1628022	-2.3336060
O	5.0041014	0.2281776	-0.9152800
C	4.3917727	-0.9536688	-0.4074432
H	4.9645487	-1.2861982	0.4630881
H	4.4088737	-1.7529227	-1.1562799
H	3.3640936	-0.7519227	-0.0864884
