29
-0.00271563 (energy)
C	-2.6521748	0.4118255	-4.3468500
C	-2.3110377	0.8651445	-3.1340001
H	-3.5460665	0.7727426	-4.8440266
H	-2.0487448	-0.3269474	-4.8681470
H	-2.9117682	1.6010536	-2.6139400
C	-1.0927209	0.3732403	-2.4558700
O	-0.3188285	-0.4521206	-2.9103820
O	-1.0047473	0.9990576	-1.2559402
C	0.1321211	0.6430754	-0.4562686
C	-0.1794035	-0.5835728	0.3805288
H	0.3398025	1.4937654	0.2010981
H	1.0235521	0.4900815	-1.0755691
H	-1.0705751	-0.4144273	0.9938219
H	0.6600299	-0.8282994	1.0374186
H	-0.3898253	-1.4496083	-0.2549493
C	4.6240970	-0.0401910	-0.0384404
H	4.9631982	0.4776720	0.8537718
H	4.3816000	0.5739127	-0.8978808
H	4.7858050	-1.9157947	0.8644044
C	4.5216176	-1.3740529	-0.0432814
C	4.0893392	-2.2079581	-1.1415767
C	3.7103903	-1.8054720	-2.3593098
H	4.0788466	-3.2767371	-0.9324144
H	3.6857878	-0.7689936	-2.6656006
O	3.3205607	-2.7065661	-3.3162269
C	2.9558358	-2.0792449	-4.5422161
H	2.6593323	-2.8600097	-5.2485905
H	3.8054945	-1.5346495	-4.9680702
H	2.1042133	-1.4060173	-4.3961294
