29
-0.00125243 (energy)
C	0.0917770	-2.5446304	2.4756849
C	-0.2902375	-1.6982110	1.5110519
H	-0.6045594	-3.2652851	2.8907277
H	1.1044210	-2.5366816	2.8708464
H	-1.2989613	-1.7054153	1.1169375
C	0.6586282	-0.7155715	0.9451901
O	1.8224895	-0.5850492	1.2844569
O	0.0000000	0.0000000	0.0000000
C	0.7768886	1.0067771	-0.6644634
C	0.7379444	2.3031002	0.1229202
H	0.3249007	1.1611326	-1.6497640
H	1.8065889	0.6703409	-0.8321469
H	-0.2962875	2.6262473	0.2806089
H	1.2783412	3.0938699	-0.4049988
H	1.1860317	2.1748383	1.1133211
C	4.6838106	2.0018612	-0.6419756
H	4.7418559	0.9733692	-0.2983925
H	4.2663817	2.7253123	0.0486310
H	5.5220172	1.5373631	-2.4969201
C	5.1158586	2.3270812	-1.8656093
C	5.1082108	3.6403041	-2.4688525
C	4.6686596	4.7776526	-1.9195765
H	5.5084229	3.6850046	-3.4807713
H	4.2543082	4.8391348	-0.9229623
O	4.7186896	5.9637433	-2.6053708
C	4.2040119	7.0554662	-1.8485000
H	4.2784923	7.9587710	-2.4608446
H	4.7921508	7.2081959	-0.9371152
H	3.1493519	6.8937911	-1.6007278
