29
-0.00112873 (energy)
C	-1.0728193	-0.5908389	-2.3297686
C	-1.2891065	-1.0171095	-1.0790125
H	-1.6501026	-0.9851398	-3.1590809
H	-0.3173583	0.1583954	-2.5524574
H	-2.0414685	-1.7636211	-0.8563610
C	-0.5022394	-0.4800083	0.0516902
O	0.3767994	0.3601208	-0.0387800
O	-0.9330863	-1.0902620	1.1835821
C	-0.2765001	-0.6827373	2.3925014
C	0.9785067	-1.5069805	2.6105018
H	-0.9794735	-0.8588818	3.2133166
H	-0.0546615	0.3907163	2.3838579
H	0.7401492	-2.5756500	2.6180186
H	1.4547110	-1.2447536	3.5594541
H	1.6989425	-1.3470614	1.8020925
C	4.7049029	0.0739515	-0.5283754
H	4.3051168	-0.4060416	0.3598768
H	5.6391211	-0.3152873	-0.9160550
H	3.1163937	1.4243894	-0.6384840
C	4.0503436	1.0950481	-1.0928459
C	4.4455574	1.8362111	-2.2688554
C	5.5385173	1.6425239	-3.0147744
H	3.7646104	2.6343874	-2.5610427
H	6.2748645	0.8781789	-2.8091618
O	5.7967440	2.4218298	-4.1127858
C	7.0066992	2.0568784	-4.7703757
H	7.1402815	2.7205971	-5.6295067
H	6.9542766	1.0259810	-5.1369245
H	7.8654554	2.1821735	-4.1020369
