29
-0.000979362 (energy)
C	0.5859053	-0.0552161	0.2095562
C	-0.6444544	0.0503432	-0.3080824
H	0.7529443	0.0635427	1.2746770
H	1.4503096	-0.2617074	-0.4164073
H	-1.5061196	0.2561854	0.3148653
C	-0.8725154	-0.1112695	-1.7599762
O	-0.0070173	-0.3436131	-2.5868018
O	-2.1991208	0.0489086	-1.9916639
C	-2.6064019	-0.0812034	-3.3612846
C	-2.4784317	1.2516521	-4.0747711
H	-3.6552106	-0.3956740	-3.3546237
H	-2.0384933	-0.8663843	-3.8736912
H	-3.0518735	2.0242001	-3.5520288
H	-2.8421269	1.1773332	-5.1034821
H	-1.4368929	1.5876309	-4.0958071
C	3.9872525	1.6967612	0.3303455
H	3.3022068	2.5392804	0.3397325
H	4.0864119	1.1575351	-0.6045173
H	4.5030284	1.9621103	2.3360207
C	4.6615799	1.3664708	1.4375509
C	5.6038208	0.2812796	1.5893960
C	5.9799211	-0.5971781	0.6538044
H	6.0428623	0.1875453	2.5816682
H	5.6033259	-0.5892712	-0.3595171
O	6.8888054	-1.5853878	0.9312915
C	7.1555540	-2.4154502	-0.1954059
H	7.8847121	-3.1732117	0.1055905
H	7.5856692	-1.8308420	-1.0158265
H	6.2448756	-2.9264872	-0.5260774
