29
-0.000956577 (energy)
C	1.3978039	-3.2364167	0.4293406
C	1.2146651	-1.9358522	0.1688222
H	2.3726479	-3.6959712	0.3069601
H	0.5814585	-3.8686492	0.7692315
H	2.0274293	-1.3053475	-0.1699698
C	-0.1140909	-1.3091062	0.3353241
O	-1.1225896	-1.8853765	0.7062068
O	0.0000000	0.0000000	0.0000000
C	-1.2045614	0.7719672	0.1084716
C	-2.0076470	0.6728889	-1.1749536
H	-0.9042543	1.8116630	0.2751575
H	-1.7981744	0.4654200	0.9775182
H	-1.4018503	0.9835460	-2.0325244
H	-2.8987078	1.3049656	-1.1246195
H	-2.3212270	-0.3587225	-1.3635615
C	5.9016109	-6.1231489	-2.8759162
H	5.9578262	-7.0337526	-3.4648604
H	5.9705937	-5.1862449	-3.4163031
H	5.6930067	-7.1734276	-1.0835528
C	5.7540420	-6.1896650	-1.5479433
C	5.6631101	-5.0792753	-0.6274646
C	5.7091137	-3.7768891	-0.9277064
H	5.5446102	-5.3566434	0.4190402
H	5.8241575	-3.3990979	-1.9340591
O	5.6105772	-2.8188042	0.0479942
C	5.6814659	-1.4956644	-0.4753426
H	5.5959391	-0.7946337	0.3599502
H	4.8547721	-1.3070711	-1.1687874
H	6.6432250	-1.3246308	-0.9709279
