29
-0.00214595 (energy)
C	0.1695665	0.5258545	0.2914993
C	-0.1925162	-0.6356815	-0.2676140
H	0.2955920	1.4180409	-0.3123294
H	0.3475458	0.6112451	1.3604687
H	-0.3698796	-0.7215949	-1.3325379
C	-0.3641999	-1.8521234	0.5551373
O	-0.2003750	-1.9145934	1.7617732
O	-0.7269126	-2.8640981	-0.2716424
C	-0.9437213	-4.1322353	0.3635660
C	0.3635386	-4.8948288	0.4706453
H	-1.6443886	-4.6899463	-0.2664813
H	-1.4188850	-4.0114860	1.3439887
H	0.8244540	-5.0082096	-0.5160802
H	0.1995279	-5.8872521	0.8998775
H	1.0817695	-4.3572430	1.0977603
C	4.2144187	6.8528635	-0.0323645
H	4.3805674	7.9215497	0.0652004
H	4.9603882	6.2000132	0.4056786
H	2.4290734	7.1223312	-1.0807427
C	3.1299473	6.3966833	-0.6691804
C	2.7655169	5.0146883	-0.8831789
C	3.4417891	3.9314404	-0.4860631
H	1.8355754	4.8625054	-1.4292528
H	4.3732422	3.9754298	0.0608985
O	2.9821875	2.6682869	-0.7559473
C	3.8438550	1.6528478	-0.2499649
H	3.4104829	0.6813023	-0.5044468
H	3.9240064	1.7188046	0.8404851
H	4.8351852	1.7188048	-0.7112151
