40
-0.0033651 (energy)
C	0.2519431	2.6606345	-2.9606115
H	0.4449073	2.4897337	-0.8892913
C	0.3088503	1.9514379	-1.8251051
H	0.0774396	2.2025320	-3.9284342
H	0.3597166	3.7407401	-2.9375605
C	0.1505778	0.5119710	-1.7058356
C	0.5275459	-0.3654676	-2.6549014
H	1.0125180	0.0020002	-3.5543153
O	-0.4773991	0.1250462	-0.5356216
C	0.4619374	-0.1192461	0.5115044
H	-0.0941488	-0.4731135	1.3846370
H	0.9850810	0.8006610	0.7926659
H	1.1855254	-0.8922785	0.2330028
S	0.2781859	-2.0807819	-2.5352363
C	0.7843094	-2.5547872	-4.1771281
C	2.0894101	-2.9998420	-4.4093237
C	2.4860878	-3.3735484	-5.6950543
H	2.8042637	-3.0596143	-3.5923293
C	1.5787974	-3.3083646	-6.7518677
H	3.5017177	-3.7187691	-5.8706297
C	-0.1238003	-2.4989805	-5.2394826
C	0.2739163	-2.8728175	-6.5246724
H	1.8873124	-3.6019931	-7.7521125
H	-0.4358543	-2.8276485	-7.3466753
H	-1.1455912	-2.1661635	-5.0724856
C	-7.9706554	-1.1515820	-2.7995654
C	-7.0822518	-0.2692407	-2.3251282
H	-8.9329786	-0.8231939	-3.1771675
H	-7.7575384	-2.2173087	-2.8212789
H	-7.2938837	0.7926564	-2.3030307
C	-5.7704471	-0.7165243	-1.8101216
O	-5.3883080	-1.8736294	-1.7678303
O	-5.0899360	0.3821354	-1.3989408
C	-3.7799213	0.1339791	-0.8688959
C	-3.8649957	-0.1778550	0.6134891
H	-3.1955115	1.0475813	-1.0196677
H	-3.2721016	-0.6669984	-1.4185720
H	-4.3729660	0.6315101	1.1481101
H	-2.8666405	-0.3105269	1.0397857
H	-4.4445210	-1.0893965	0.7906047
