40
-0.00183871 (energy)
C	-3.7935741	-2.1458731	1.9148596
H	-2.4700685	-2.2582678	3.5249869
C	-2.5943256	-1.9647798	2.4845802
H	-3.9863911	-1.9174010	0.8719732
H	-4.6170429	-2.5566585	2.4909923
C	-1.4023340	-1.4560624	1.8275390
C	-1.4237663	-0.5572986	0.8252946
H	-2.3758770	-0.1500913	0.4984256
O	-0.2325552	-2.0255027	2.2974557
C	0.3204137	-1.2776143	3.3806883
H	1.2662851	-1.7483659	3.6644750
H	-0.3431448	-1.2979692	4.2514556
H	0.5290115	-0.2423072	3.0919876
S	0.0000000	0.0000000	0.0000000
C	-0.7768441	0.9442535	-1.2967456
C	-0.9472287	2.3249268	-1.1553705
C	-1.5537683	3.0658189	-2.1718849
H	-0.6085685	2.8321522	-0.2553151
C	-1.9876077	2.4304469	-3.3347973
H	-1.6841118	4.1388520	-2.0573478
C	-1.2067885	0.3134754	-2.4687701
C	-1.8131932	1.0552371	-3.4845006
H	-2.4572789	3.0081013	-4.1270179
H	-2.1453722	0.5600639	-4.3933261
H	-1.0706339	-0.7576769	-2.5984099
C	3.9332497	-4.2813150	7.3102043
C	3.5050269	-3.7851467	6.1425913
H	3.2344149	-4.5044734	8.1091526
H	4.9871074	-4.4748631	7.4934706
H	2.4552821	-3.5919159	5.9592897
C	4.4573641	-3.4806254	5.0533500
O	5.6646909	-3.6419858	5.1084510
O	3.7470320	-2.9942448	4.0054568
C	4.5174286	-2.6468001	2.8459574
C	5.0263532	-1.2222611	2.9626946
H	3.8499304	-2.7293110	1.9819123
H	5.3393013	-3.3543102	2.6861312
H	4.1941415	-0.5283784	3.1204154
H	5.5651233	-0.9275553	2.0577531
H	5.6980819	-1.1140493	3.8201315
