40
-0.00301695 (energy)
C	-0.2519430	2.4536183	-3.1343188
H	-0.4449073	0.4434428	-2.6063330
C	-0.3088503	1.4585136	-2.2387176
H	-0.0774395	3.4862862	-2.8512367
H	-0.3597165	2.2433589	-4.1940123
C	-0.1505777	1.5910171	-0.8004085
C	-0.5275457	2.6780303	-0.1011040
H	-1.0125178	3.4999699	-0.6191708
O	0.4773991	0.5057702	-0.2161563
C	-0.4619374	-0.4830265	0.2062563
H	0.0941487	-1.2814458	0.7063657
H	-0.9850810	-0.9196569	-0.6508520
H	-1.1855254	-0.0745202	0.9191833
S	-0.2781858	2.8580447	1.6089305
C	-0.7843091	4.5573026	1.7906227
C	-2.0894098	4.8632538	2.1885957
C	-2.4860875	6.1943447	2.3333597
H	-2.8042634	4.0690508	2.3893297
C	-1.5787969	7.2237836	2.0856523
H	-3.5017173	6.4271998	2.6428474
C	0.1238007	5.5938268	1.5511877
C	-0.2739159	6.9244079	1.6961742
H	-1.8873120	8.2598206	2.2011290
H	0.4358548	7.7260790	1.5089520
H	1.1455915	5.3715737	1.2524257
C	3.6800093	-1.1606047	0.6488477
C	3.7508265	-2.4500326	0.2949575
H	3.0896464	-0.4573139	0.0714903
H	4.2080081	-0.7801594	1.5195614
H	3.2252009	-2.8297987	-0.5724508
C	4.5556455	-3.4089750	1.0816099
O	5.2019046	-3.1341007	2.0783568
O	4.4432697	-4.6255281	0.4928923
C	5.1629770	-5.6893302	1.1324343
C	6.5883263	-5.7425354	0.6152381
H	4.6457179	-6.6213233	0.8818994
H	5.1359332	-5.5898650	2.2237477
H	6.5982190	-5.8433278	-0.4750225
H	7.1283717	-6.5868906	1.0527984
H	7.1278591	-4.8207617	0.8547479
