40
-0.000198313 (energy)
C	-5.4073821	0.2455425	3.0695188
H	-6.4808693	-1.4965776	2.6578724
C	-5.6509002	-0.8614837	2.3548403
H	-4.6255197	0.9506830	2.8078738
H	-6.0157072	0.4819868	3.9371646
C	-4.9399461	-1.2826427	1.1596376
C	-3.6363339	-1.0321951	0.9346921
H	-3.0563387	-0.5175068	1.6948747
O	-5.7478299	-1.9273451	0.2403176
C	-5.7662635	-3.3391311	0.4525086
H	-6.3745319	-3.7888176	-0.3378117
H	-6.2252824	-3.5858317	1.4155249
H	-4.7612407	-3.7695951	0.3946148
S	-2.8063072	-1.4819221	-0.5239390
C	-1.2529289	-0.6589890	-0.2299193
C	-0.1768994	-1.3637594	0.3184744
C	1.0412094	-0.7202741	0.5470577
H	-0.2791090	-2.4165890	0.5698135
C	1.1895885	0.6280274	0.2240312
H	1.8747520	-1.2723060	0.9736438
C	-1.0959224	0.6912693	-0.5593526
C	0.1224621	1.3337052	-0.3303093
H	2.1389269	1.1278315	0.3996487
H	0.2391224	2.3831558	-0.5882767
H	-1.9198744	1.2497672	-0.9974108
C	2.2999810	-5.4048234	-6.5150141
C	2.0738502	-5.1172317	-5.2269794
H	2.3817101	-6.4335931	-6.8488425
H	2.4081514	-4.6223382	-7.2617937
H	1.9661060	-5.8962293	-4.4823614
C	1.9625917	-3.7149852	-4.7715101
O	2.0617544	-2.7326220	-5.4869403
O	1.7380760	-3.7300102	-3.4341302
C	1.5972365	-2.4420889	-2.8176153
C	2.9580367	-1.8967611	-2.4267397
H	0.9854966	-2.5821473	-1.9203450
H	1.0578410	-1.7446493	-3.4689371
H	3.4829778	-2.6035805	-1.7757647
H	2.8573417	-0.9420705	-1.9028407
H	3.5891768	-1.7466583	-3.3083624
