40
-0.00272513 (energy)
C	-0.1610375	-2.5940163	0.7021816
H	-0.8924646	-1.3765923	2.2317903
C	-0.4038002	-1.4000094	1.2598438
H	0.3582233	-2.7031020	-0.2441051
H	-0.4658654	-3.5059619	1.2063737
C	-0.0258047	-0.1074403	0.7142022
C	0.0448684	0.1590016	-0.6036534
H	-0.2269879	-0.6139314	-1.3162856
O	0.3084504	0.8201476	1.6844190
C	-0.8258812	1.5810314	2.1001738
H	-0.4821136	2.3278945	2.8218620
H	-1.5653475	0.9445022	2.5971447
H	-1.2888980	2.1082226	1.2596937
S	0.5588572	1.6869440	-1.2517359
C	0.6285409	1.2519298	-2.9787442
C	-0.4552596	1.5291293	-3.8176802
C	-0.4005555	1.1906442	-5.1713965
H	-1.3471289	2.0105114	-3.4240960
C	0.7389240	0.5785619	-5.6921857
H	-1.2456088	1.4080420	-5.8195717
C	1.7720544	0.6450105	-3.5082727
C	1.8256515	0.3069288	-4.8619616
H	0.7820888	0.3177178	-6.7466933
H	2.7167954	-0.1644677	-5.2683496
H	2.6275792	0.4337362	-2.8709718
C	2.8636298	2.1068487	2.9567139
C	3.4732886	3.2346109	3.3431672
H	2.9329687	1.7608187	1.9310709
H	2.2839485	1.5064745	3.6532655
H	4.0508736	3.8333691	2.6497799
C	3.3788209	3.7067305	4.7411317
O	2.7669836	3.1451018	5.6338463
O	4.0841765	4.8610293	4.8374949
C	4.1061447	5.4638539	6.1393349
C	2.9002136	6.3668596	6.3189296
H	5.0234544	6.0585591	6.2010161
H	4.1605861	4.7058478	6.9293049
H	2.8609409	7.1185638	5.5237418
H	2.9382962	6.8770479	7.2855223
H	1.9689011	5.7945077	6.2623824
