11
-0.00130745 (energy)
C	-1.3083179	-0.3512128	-0.4065844
H	-1.5838741	-0.5759261	-1.4301335
C	-0.0753928	-0.0199720	-0.0217705
H	0.7265323	0.0380084	-0.7512416
H	0.1711572	0.1997953	1.0104592
O	-2.3789020	-0.4500660	0.4338148
H	-2.0862228	-0.2408659	1.3376760
C	3.7054770	-1.4547078	0.9907255
H	3.5156279	-1.5890165	2.0675959
H	4.3454962	-2.2194542	0.5224370
O	3.2364136	-0.5179162	0.3565804
