11
-0.00127105 (energy)
C	-0.0286291	-0.0776861	-0.0138968
H	0.3408822	0.9249953	0.1654671
C	-0.2001891	-0.6033038	-1.2272392
H	0.0343055	-0.0201090	-2.1123776
H	-0.5719310	-1.6103616	-1.3763203
O	-0.2945416	-0.7302544	1.1547084
H	-0.6222860	-1.6221739	0.9462519
C	3.2665384	-0.8483010	0.2807156
H	2.6901147	-0.3112895	1.0508362
H	2.9969322	-0.6163892	-0.7620142
O	4.1480900	-1.6495054	0.5647530
