11
-0.00104669 (energy)
C	-1.2772315	0.1538074	-0.5876905
H	-1.5462405	-0.2379871	-1.5614520
C	-0.0736013	0.0096139	-0.0323625
H	0.7092695	-0.5272889	-0.5590715
H	0.1670891	0.4128184	0.9444061
O	-2.3223773	0.8102241	-0.0054705
H	-2.0366610	1.1434525	0.8626977
C	3.5340203	-1.7315737	1.0081375
H	3.8196222	-2.6649514	0.4972863
H	3.4401978	-1.7995026	2.1037373
O	3.3341887	-0.6882228	0.3988550
