11
-0.0028559 (energy)
C	0.0811280	-0.0187055	-0.0099854
H	-0.9659778	0.2227231	0.1188943
C	0.5431868	-0.8227628	-0.9652497
H	-0.1267402	-1.2870648	-1.6797539
H	1.6048521	-1.0307791	-1.0485621
O	0.9136889	0.5720764	0.8957019
H	0.3734428	1.1129039	1.4983359
C	4.1475823	1.3956702	-0.8074146
H	3.7350684	1.4751499	0.2110384
H	3.9724472	0.4347095	-1.3169616
O	4.7599015	2.3141482	-1.3376996
