11
-0.00275695 (energy)
C	-0.0797533	0.0246106	0.0080683
H	0.9496088	-0.2930336	-0.0960674
C	-0.5339822	1.2080017	-0.3991147
H	0.1245925	1.9302124	-0.8677147
H	-1.5776568	1.4750693	-0.2696434
O	-0.8982059	-0.8935125	0.5993684
H	-0.3671145	-1.6799694	0.8160605
C	4.0552456	1.3609161	1.4668202
H	4.0550344	2.4573280	1.3590606
H	4.6076689	0.9693527	2.3358786
O	3.4798539	0.6264642	0.6735714
