11
-0.00411313 (energy)
C	-0.1896436	-0.6819186	-1.1891431
H	-0.2024938	-1.7549067	-1.0482191
C	-0.3393159	-0.0888696	-2.3716944
H	-0.4853426	-0.6692873	-3.2754015
H	-0.3180974	0.9927348	-2.4555179
O	-0.0051020	0.0370438	-0.0439410
H	0.0809727	-0.5879120	0.6973750
C	2.9288436	-0.5881942	1.9039457
H	3.1984556	0.4789520	1.8566203
H	3.5052694	-1.2533789	1.2413610
O	2.0472925	-1.0070462	2.6436548
