11
-0.00306072 (energy)
C	-0.0815880	0.0047971	-0.0187549
H	0.9714546	-0.0571186	0.2233112
C	-0.5462666	0.3139726	-1.2274818
H	0.1274589	0.5243884	-2.0501081
H	-1.6139513	0.3618921	-1.4148263
O	-0.9188694	-0.2622621	1.0253187
H	-0.3755602	-0.4624107	1.8078042
C	4.8229422	-0.9957186	0.3002607
H	5.6849678	-0.8085448	-0.3597461
H	4.9987259	-1.7110126	1.1195351
O	3.7415591	-0.4454335	0.1343217
