11
-0.00502476 (energy)
C	0.7282944	0.9038250	0.7540943
H	0.3893948	1.9283493	0.6562318
C	1.7497121	0.5264985	1.5236638
H	2.2984713	1.2636074	2.1016842
H	2.0666752	-0.5069317	1.6020161
O	-0.0200549	0.0536061	-0.0070193
H	0.3182863	-0.8507680	0.1114020
C	2.9105484	-4.2513034	0.3022030
H	3.9457434	-4.1102938	-0.0473951
H	2.5891199	-5.2979578	0.4244905
O	2.1668058	-3.3076492	0.5390630
