11
-0.00336239 (energy)
C	-0.8755876	0.5315504	0.9310055
H	-0.4689417	1.3688849	1.4856135
C	-2.1026765	0.0423741	1.1122951
H	-2.7624497	0.4849901	1.8521357
H	-2.4829560	-0.7972237	0.5421673
O	0.0240666	0.0442808	0.0280196
H	-0.3819549	-0.7027681	-0.4446911
C	3.2670610	-0.1329257	-1.8270727
H	2.3079736	0.4065734	-1.8802084
H	3.8194957	-0.0271096	-0.8797741
O	3.6907975	-0.8053379	-2.7587637
