11
-0.00294622 (energy)
C	0.5662721	1.2530037	0.3311718
H	0.0654335	2.2019847	0.1805868
C	0.0337289	0.0709933	0.0194736
H	-0.9604247	0.0178267	-0.4134300
H	0.5588199	-0.8631319	0.1815608
O	1.8052490	1.4214625	0.8777529
H	2.2160195	0.5473956	0.9946530
C	5.1201645	-1.8543230	2.1863027
H	5.2675059	-2.2150835	1.1558302
H	5.6594762	-2.4141342	2.9670141
O	4.4046903	-0.8951051	2.4465651
