11
-0.000907078 (energy)
C	0.6469210	-1.0753734	-0.6522441
H	0.3541648	-2.1129612	-0.5436838
C	0.0380384	-0.0605343	-0.0380210
H	-0.8061457	-0.2477420	0.6183938
H	0.3532292	0.9685135	-0.1656845
O	1.7128774	-0.9408597	-1.4935741
H	1.9399767	0.0026937	-1.5608338
C	5.3861840	-1.5514794	-0.0842660
H	5.8919217	-0.9149753	0.6592548
H	4.5984048	-1.0573065	-0.6749884
O	5.6800560	-2.7296241	-0.2434927
