11
-0.0029864 (energy)
C	1.2973904	0.0659799	-0.4779075
H	2.0284580	-0.3936784	0.1765652
C	1.5976025	0.6467841	-1.6399943
H	2.6269752	0.6798497	-1.9833196
H	0.8443750	1.0990198	-2.2745918
O	0.0367768	-0.0251174	0.0366289
H	-0.5836743	0.3986311	-0.5813263
C	-0.0677348	-3.0335249	2.4539563
H	0.8887850	-2.6598168	2.8528841
H	-0.6440799	-2.3140580	1.8506740
O	-0.4638821	-4.1725904	2.6668789
