11
0.00114498 (energy)
C	-0.6126896	0.6363193	-1.0656828
H	-0.2503237	1.6422415	-1.2414429
C	-1.5599181	0.0466875	-1.7957507
H	-2.0185719	0.5766812	-2.6247965
H	-1.9028505	-0.9618957	-1.5964016
O	0.0210683	0.0532001	-0.0071386
H	-0.3343695	-0.8443246	0.1132947
C	1.8854766	-1.7279163	-2.5218730
H	1.1668611	-1.2043226	-3.1723902
H	2.2145956	-2.7172811	-2.8776732
O	2.2913358	-1.2426040	-1.4733077
