11
0.00254777 (energy)
C	-0.9070672	-1.0139960	-0.3865208
H	-1.6803367	-0.8811868	-1.1338467
C	-0.0512405	-0.0590450	-0.0210953
H	-0.1027922	0.9239097	-0.4790432
H	0.7129044	-0.2208712	0.7302218
O	-0.9210909	-2.2769710	0.1300938
H	-0.2135434	-2.3503503	0.7937074
C	2.6864497	-1.7874375	-1.3824448
H	3.6714265	-2.1704022	-1.0711732
H	2.6396048	-0.7051811	-1.5831498
O	1.7089254	-2.5160736	-1.4976600
