11
-0.00423936 (energy)
C	0.2948130	1.2902495	0.4053545
H	-0.4341261	2.0260231	0.0869755
C	1.3818578	1.5788723	1.1215506
H	1.5810270	2.6029181	1.4219429
H	2.0944161	0.8211716	1.4260715
O	-0.0402608	0.0370485	-0.0182088
H	0.6389684	-0.5879870	0.2889870
C	2.5478333	-3.7341329	-1.4377292
H	2.1981950	-3.5685095	-2.4692587
H	3.1869527	-4.6191590	-1.2893677
O	2.2462104	-2.9845369	-0.5174747
