11
0.00416369 (energy)
C	1.1762028	-0.0324858	0.7847603
H	1.1832522	0.0241731	1.8668047
C	0.0682054	-0.0019842	0.0436005
H	-0.9038836	0.0841894	0.5191958
H	0.0917742	-0.0605644	-1.0383401
O	2.4397116	-0.1384925	0.2802793
H	2.3851912	-0.1862800	-0.6898418
C	5.6648867	-2.0036911	1.4709787
H	6.1230716	-2.6935109	2.1975780
H	6.3043882	-1.1702458	1.1390711
O	4.5211206	-2.1533339	1.0597063
