11
0.00467991 (energy)
C	-1.1479685	0.2862366	0.7184760
H	-1.0831823	1.1971540	1.3016675
C	-2.2236627	-0.5008076	0.6817336
H	-3.1068592	-0.2446066	1.2587073
H	-2.2598180	-1.4071126	0.0885333
O	0.0061135	0.0488320	0.0300525
H	-0.0970251	-0.7749990	-0.4769544
C	3.0174820	0.3207744	-1.4246106
H	2.5155598	0.2634257	-2.4036492
H	3.8038110	-0.4307285	-1.2494360
O	2.7211487	1.1635777	-0.5869902
