11
0.00241179 (energy)
C	0.0019992	-0.0542478	-0.0640395
H	-0.0238035	0.6459196	0.7625075
C	0.7931442	-1.1266355	-0.1085448
H	1.4655417	-1.3429154	0.7158814
H	0.7974795	-1.8102814	-0.9494919
O	-0.8741668	0.3000389	-1.0484211
H	-0.8172263	-0.3535966	-1.7666894
C	4.2778791	0.7328458	-0.8005618
H	4.8154628	0.3137149	0.0649232
H	4.7650405	1.5898179	-1.2925258
O	3.2101148	0.2766336	-1.1897772
