11
0.00499469 (energy)
C	0.0085689	0.0498384	0.0670119
H	-0.1020281	-0.5934169	-0.7978991
C	0.5980590	1.2454504	0.0366857
H	1.0035832	1.6301341	-0.8939820
H	0.6943898	1.8676881	0.9187987
O	-0.5298027	-0.5172488	1.1853863
H	-0.4081839	0.0924505	1.9336286
C	1.6368249	-3.4852085	1.5585426
H	2.2146111	-2.7991145	0.9188791
H	2.0913521	-4.4748124	1.7254105
O	0.5611738	-3.1689708	2.0511960
