11
0.00310336 (energy)
C	-1.3425341	0.1955806	0.2744471
H	-1.5771258	1.1953243	0.6202206
C	-2.2472721	-0.7716967	0.1204015
H	-3.2922052	-0.5819934	0.3455712
H	-1.9831322	-1.7635053	-0.2276338
O	-0.0097079	0.0538615	0.0181601
H	0.1540712	-0.8548203	-0.2882137
C	3.4851613	2.3330914	0.2805626
H	4.3856180	2.2587047	-0.3498147
H	3.4146242	3.2396377	0.9026191
O	2.6203910	1.4660067	0.2892422
