11
-0.00408846 (energy)
C	-0.9705308	0.9823878	0.0946314
H	-1.6095481	0.8835569	0.9640964
C	-1.0902373	1.9523146	-0.8124622
H	-1.8638498	2.7064365	-0.7057025
H	-0.4358126	2.0260934	-1.6731989
O	-0.0325152	-0.0075882	0.0470135
H	0.5160395	0.1204298	-0.7461385
C	1.9062705	-1.9427881	2.0248835
H	1.5517586	-2.3426813	1.0614844
H	1.2051909	-1.2727963	2.5477165
O	3.0061729	-2.2242180	2.4839596
