11
0.00534832 (energy)
C	-0.0321691	-0.0386551	-0.0672221
H	0.3830320	0.4602602	0.8004020
C	-1.3388676	-0.1781555	-0.2930211
H	-2.0600741	0.2199108	0.4140703
H	-1.7256557	-0.6826387	-1.1707878
O	0.9481851	-0.5034983	-0.8948811
H	0.5312649	-0.9419871	-1.6566529
C	4.6532894	-0.6293304	0.4093148
H	5.7023093	-0.9120318	0.2266445
H	4.5048372	0.2747928	1.0210984
O	3.7149043	-1.2768281	-0.0378082
