11
0.00677229 (energy)
C	-1.2333578	0.6845858	-0.1026055
H	-1.9969985	0.6738076	0.6660406
C	-0.0701818	0.0397238	-0.0073108
H	0.1600219	-0.5415900	0.8801881
H	0.6756212	0.0686061	-0.7931393
O	-1.6123809	1.4385988	-1.1749855
H	-0.8997535	1.4197788	-1.8369515
C	1.7016707	3.1688545	0.9965351
H	2.5296675	2.4449605	0.9322697
H	1.9987741	4.2295690	1.0157783
O	0.5293328	2.8179100	1.0434458
