11
0.00625653 (energy)
C	0.0098831	0.0767881	-0.0324621
H	-0.1176765	-0.9143033	0.3865206
C	0.3984058	1.1399927	0.6722029
H	0.6085514	1.0441297	1.7329681
H	0.5175920	2.1203226	0.2257384
O	-0.2764612	0.0975123	-1.3665425
H	-0.1489551	1.0028854	-1.6988567
C	3.3556515	-0.9236718	0.8047275
H	3.7806065	-1.8847491	0.4738576
H	3.1908715	-0.8257665	1.8896321
O	3.0845512	-0.0242525	0.0190504
