11
-0.00409216 (energy)
C	-0.0083174	-0.0467871	-0.0692074
H	0.0990344	0.5570863	0.8240409
C	-1.0807650	-0.7906357	-0.3420662
H	-1.9166092	-0.8171212	0.3502032
H	-1.1603811	-1.3852888	-1.2446357
O	1.0887106	0.0508671	-0.8749284
H	0.9488260	-0.5049855	-1.6609635
C	3.9850422	-1.4177279	-0.4133845
H	4.0516079	-0.4143128	-0.8633384
H	4.5769093	-1.5670228	0.5037633
O	3.2989703	-2.3077145	-0.9001783
