11
-0.00341367 (energy)
C	0.4679742	0.9019195	-0.9838183
H	0.2133029	1.9548054	-1.0093896
C	0.0275921	0.0504471	-0.0570147
H	-0.6278399	0.3980558	0.7355450
H	0.2993054	-0.9987213	-0.0566807
O	1.2927242	0.5606426	-2.0160540
H	1.4942048	-0.3890256	-1.9533894
C	3.4264516	2.6053992	-2.6533782
H	3.2780034	2.8710594	-1.5945491
H	2.6151660	2.9043803	-3.3361534
O	4.4264713	2.0170562	-3.0452352
