18
0.00284122 (energy)
C	-0.7697192	0.0661199	-2.9690200
O	-1.2267734	0.9700875	-3.6630105
H	-1.4439376	-0.7206793	-2.5870340
C	0.6577506	-0.0476492	-2.4871581
Cl	1.7579113	0.7077183	-3.6734920
H	0.9217871	-1.1093415	-2.4480882
C	0.8174978	0.6160672	-1.1159591
H	0.5301986	1.6737146	-1.1554933
H	1.8729878	0.5788908	-0.8210801
N	0.0384553	-0.0409887	-0.0554758
H	-0.9268452	0.2951573	-0.0802608
H	0.3925337	0.2743541	0.8510604
O	2.9658506	3.4429614	-3.8673546
H	3.4842029	3.5191408	-4.6864805
C	2.0763235	4.5438338	-3.8339739
H	1.4764460	4.4884856	-2.9225449
H	1.4167705	4.5070315	-4.7044545
H	2.6477094	5.4753093	-3.8354706
