11
-0.00366625 (energy)
C	-1.1585990	0.7522315	-0.0881304
H	-2.0133039	0.1974093	-0.4565485
C	-1.1969403	2.0403199	0.2543087
H	-2.1240278	2.5991669	0.1720122
H	-0.3250038	2.5698873	0.6201883
O	-0.0438065	-0.0318370	-0.0198112
H	0.6952413	0.5052755	0.3144186
C	4.0369013	0.3939350	0.9632109
H	4.1375471	0.5116726	-0.1275409
H	4.6274431	-0.4222415	1.4091619
O	3.3167032	1.1216884	1.6350953
