11
0 (energy)
C	-2.9847884	2.6522698	-0.3455720
H	-3.8011553	2.1976056	-0.8941206
C	-1.7445442	2.7745725	-0.8196426
H	-1.5013137	2.4075481	-1.8119660
H	-0.9471572	3.2344395	-0.2475595
O	-3.3862559	3.0814251	0.8860296
H	-2.6245699	3.4807818	1.3407160
C	-7.0474465	2.7125371	0.2359686
H	-8.0652983	2.6549923	-0.1816408
H	-6.6506550	3.7299926	0.3812160
O	-6.4003017	1.7123380	0.5197718
