11
0 (energy)
C	-2.6424166	2.5174220	-0.3271542
H	-2.2966172	1.6156198	-0.8183320
C	-3.4653845	3.4036736	-0.8885706
H	-3.8315066	3.2446965	-1.8981520
H	-3.7948813	4.2979376	-0.3725216
O	-2.1305965	2.6294848	0.9328756
H	-2.4662219	3.4497504	1.3340128
C	-6.9571282	1.9838320	0.1707167
H	-6.3856735	2.7886290	-0.3186428
H	-6.5082786	0.9794244	0.1119335
O	-8.0202657	2.1918067	0.7418769
