11
0 (energy)
C	-2.8531363	2.8872280	-0.4697277
H	-3.0891247	2.6909416	-1.5088914
C	-3.0194682	4.0704094	0.1221524
H	-3.4131192	4.9112012	-0.4405925
H	-2.7743968	4.2375709	1.1645437
O	-2.3664904	1.7744575	0.1524544
H	-2.1692251	1.9962661	1.0788875
C	-6.8127818	2.7309167	0.0887323
H	-7.7348655	3.2788327	-0.1628245
H	-5.8737641	3.2085262	-0.2335887
O	-6.8304099	1.6623389	0.6867036
