11
0 (energy)
C	-2.6620529	3.1280873	0.3311254
H	-2.2722203	3.8108697	1.0767250
C	-3.8751493	2.5773626	0.3859530
H	-4.5401237	2.8040587	1.2135952
H	-4.2386857	1.8969479	-0.3752696
O	-1.7574031	2.9051162	-0.6659130
H	-2.1482418	2.2893161	-1.3096725
C	-7.8229050	1.4709117	0.7393168
H	-8.2400370	1.0131441	1.6504594
H	-7.0000363	0.9147544	0.2625233
O	-8.2456655	2.5274002	0.2867194
