11
0 (energy)
C	-2.3325304	2.8058609	-0.2656187
H	-1.4138641	2.4321723	-0.7020692
C	-2.8224616	4.0255510	-0.4897389
H	-2.2955189	4.7132251	-1.1439632
H	-3.7449051	4.3724573	-0.0388102
O	-2.9208254	1.8734138	0.5385234
H	-3.7383722	2.2505624	0.9069892
C	-7.3421923	2.5066039	0.0134906
H	-7.8880914	3.4105001	0.3276517
H	-7.4081230	2.2606328	-1.0583803
O	-6.7046709	1.8210496	0.8029972
