11
0 (energy)
C	-2.5482854	3.1842641	0.2359046
H	-2.2326988	3.7953807	1.0731749
C	-2.3319472	3.5001760	-1.0413205
H	-1.8109085	4.4180745	-1.2953970
H	-2.6595101	2.8687338	-1.8589793
O	-3.1920745	2.0558949	0.6536504
H	-3.4561367	1.5400900	-0.1277633
C	-6.3292729	2.3876113	-0.2091521
H	-5.8545784	3.3534343	-0.4449109
H	-6.4439264	1.6950962	-1.0582889
O	-6.7044320	2.1028139	0.9212836
