11
0 (energy)
C	-2.6671392	3.1281791	0.3318652
H	-2.2802961	3.6652520	1.1897610
C	-3.9151630	3.2476701	-0.1220784
H	-4.6141369	3.9145575	0.3731696
H	-4.2746861	2.6971197	-0.9836004
O	-1.7186356	2.3181263	-0.2216224
H	-2.1084213	1.8578866	-0.9849294
C	-8.0773720	2.2116917	0.2540505
H	-7.0148237	2.1256135	0.5321028
H	-8.2901148	2.8540738	-0.6153410
O	-8.9628642	1.6320381	0.8702031
