11
0 (energy)
C	-2.4736392	3.1958473	0.1485901
H	-1.7285535	3.9553516	0.3537259
C	-3.5161455	2.9409298	0.9398575
H	-3.6590697	3.5092924	1.8537013
H	-4.2463886	2.1741325	0.7088821
O	-2.2099389	2.5370777	-1.0170332
H	-2.9011966	1.8677137	-1.1602308
C	-7.8904644	1.9417167	0.9312763
H	-7.5729190	2.0617809	1.9793607
H	-8.9106280	1.5519790	0.7859263
O	-7.1583623	2.2227092	-0.0093663
