11
0 (energy)
C	-2.6330254	3.2085069	0.2467058
H	-2.1697355	3.9256625	0.9138868
C	-3.9058629	3.2692344	-0.1458543
H	-4.5468823	4.0723676	0.2043528
H	-4.3425900	2.5368267	-0.8147571
O	-1.7517995	2.2403282	-0.1383447
H	-2.2089206	1.6214582	-0.7336859
C	-7.7296401	1.5742363	0.0944759
H	-8.6524100	1.2430298	-0.4080468
H	-6.8247479	0.9922709	-0.1426787
O	-7.7109950	2.5257436	0.8652062
