11
0 (energy)
C	-2.6416174	2.7590230	0.4063813
H	-2.2078368	2.6458645	1.3928445
C	-3.8610954	2.3338440	0.0747147
H	-4.4857840	1.8397371	0.8124113
H	-4.2692340	2.4609406	-0.9212030
O	-1.7846970	3.3890303	-0.4485872
H	-2.2139014	3.4685052	-1.3179883
C	-8.0324663	1.9509981	0.5889691
H	-7.5227183	2.9263792	0.6391688
H	-7.3710312	1.0702634	0.5651810
O	-9.2528156	1.8523618	0.5614504
