11
0 (energy)
C	-2.4255691	2.8740292	-0.3799228
H	-1.6123745	3.1170652	-1.0535163
C	-3.3210750	1.9128518	-0.6082074
H	-3.2628763	1.3171634	-1.5139348
H	-4.1247987	1.6918976	0.0844614
O	-2.4159984	3.6732992	0.7260921
H	-3.1598792	3.4206915	1.2998706
C	-7.9358721	2.3898020	0.1639794
H	-8.9664605	2.4347304	0.5507612
H	-7.7607879	2.9233510	-0.7838745
O	-7.0444416	1.7870460	0.7485952
