11
0 (energy)
C	-3.0099907	2.6981080	-0.3501436
H	-3.5406461	2.4799325	-1.2693195
C	-3.3233085	2.1725902	0.8345798
H	-4.1548293	1.4800384	0.9212919
H	-2.7739219	2.4094803	1.7382611
O	-1.9854012	3.5749001	-0.5590573
H	-1.5392160	3.7410320	0.2892999
C	-7.9602844	2.1039734	0.8155074
H	-8.9525845	1.7799405	0.4632654
H	-7.9173378	2.4510741	1.8602240
O	-6.9710662	2.0799410	0.0939752
