11
0 (energy)
C	-2.5031832	2.7664633	0.3580166
H	-1.9117369	2.3202138	1.1486699
C	-3.1225674	3.9425663	0.4631419
H	-3.0520147	4.5158816	1.3823294
H	-3.7080129	4.3646133	-0.3453831
O	-2.5328860	1.9749723	-0.7532227
H	-3.0725314	2.4130862	-1.4338328
C	-6.4236317	2.1457508	-0.2551525
H	-6.2633057	2.9381355	-1.0035865
H	-6.5835866	1.1342548	-0.6614112
O	-6.4240189	2.3740442	0.9480187
