11
0 (energy)
C	-3.0571957	2.8336308	0.2778021
H	-3.8968618	3.0360556	0.9320690
C	-2.4026203	1.6725281	0.2420530
H	-2.7014621	0.8576682	0.8941808
H	-1.5652373	1.4985011	-0.4235948
O	-2.7569369	3.9133574	-0.5008044
H	-2.0006408	3.6872042	-1.0693656
C	-7.9376672	2.0343910	0.3173249
H	-8.6059764	2.8809842	0.0928832
H	-8.4106725	1.0394875	0.3035854
O	-6.7484367	2.1889110	0.5655048
