11
0 (energy)
C	-2.6619225	2.6022790	0.3416223
H	-2.6728307	1.8163934	1.0875076
C	-2.0329142	3.7678515	0.4955570
H	-1.4882779	3.9769270	1.4111074
H	-2.0392599	4.5362536	-0.2687077
O	-3.3705618	2.2483721	-0.7695812
H	-3.3336406	2.9803821	-1.4092602
C	-7.3809299	2.1673451	0.4863443
H	-8.1090732	2.7769745	-0.0721273
H	-7.8094643	1.4894299	1.2416887
O	-6.1756910	2.2384843	0.2812165
