11
0 (energy)
C	-3.1303734	2.9696958	-0.2060483
H	-4.1772497	3.0071809	-0.4830411
C	-2.2240184	3.8679559	-0.5927729
H	-2.5168314	4.7011798	-1.2240987
H	-1.1824953	3.8048294	-0.2998101
O	-2.8596486	1.8912415	0.5850505
H	-1.9127835	1.8979922	0.8081917
C	-7.9429439	1.9846315	0.8368921
H	-8.8346003	2.6310156	0.8663512
H	-7.9485861	1.1356103	1.5389513
O	-7.0079691	2.1957608	0.0746682
