11
0 (energy)
C	-2.9939961	2.5400148	-0.2177618
H	-3.6161272	1.6730509	-0.4059278
C	-2.7340883	3.4823681	-1.1245830
H	-3.1544802	3.4093915	-2.1228409
H	-2.1074007	4.3395747	-0.9076906
O	-2.5130565	2.5440104	1.0592950
H	-1.9625248	3.3365171	1.1827409
C	-7.0229603	1.5851154	0.3647018
H	-6.8906329	0.8635941	1.1866676
H	-6.5811631	1.2912035	-0.6007965
O	-7.6211867	2.6431804	0.5142434
