19
0.00289222 (energy)
C	0.0336601	-0.0467719	-0.0614904
H	-0.4007848	0.5569047	0.7321554
C	0.3459048	-1.3798053	0.2003926
H	0.1554157	-1.8008489	1.1837364
C	0.9000684	-2.1677420	-0.8013461
H	1.1448537	-3.2078493	-0.6054612
C	1.1404413	-1.6203723	-2.0627266
H	1.5718268	-2.2529353	-2.8339204
C	0.8362332	-0.2818288	-2.3424301
N	1.0768176	0.2125205	-3.6143188
H	0.8904331	1.1778819	-3.8409374
H	1.5029830	-0.3734212	-4.3179342
C	-0.0811294	1.9557884	-1.5661053
H	-0.5062297	2.4202055	-0.6699304
H	-0.8256304	2.0380268	-2.3644789
H	0.8130272	2.5254911	-1.8392050
C	0.2725160	0.5136288	-1.3287131
Br	3.9885149	0.8622074	-3.1799098
H	3.8442361	0.3166405	-1.8432530
