19
0.0107178 (energy)
C	-1.0285688	-0.8802899	-0.4847060
H	-0.7853193	-1.4512097	-1.3779706
C	-0.0749793	-0.0078915	0.0374489
H	0.8927659	0.0939623	-0.4458977
C	-0.3677290	0.7315708	1.1771485
H	0.3696322	1.4145972	1.5893223
C	-1.6137465	0.5966968	1.7917402
H	-1.8251354	1.1852869	2.6804727
C	-2.5825789	-0.2778620	1.2828332
N	-3.8113544	-0.3654707	1.9171819
H	-4.5216291	-1.0026816	1.5893254
H	-3.9909655	0.1641348	2.7581795
C	-3.2841669	-1.9754559	-0.4713373
H	-2.8854290	-2.4701212	-1.3634345
H	-4.1901996	-1.4383101	-0.7697073
H	-3.5428366	-2.7571015	0.2503141
C	-2.2862048	-1.0232761	0.1275530
Br	-0.4972210	-2.8899446	1.7154489
H	0.5171413	-1.9816337	2.2165990
