11
0.00103129 (energy)
C	0.0744595	-0.0019558	0.0387278
H	-0.8865766	0.0232874	-0.4611248
C	1.1832039	-0.5081516	-0.5019738
H	1.1590064	-0.9292422	-1.5023093
H	2.1316447	-0.5198260	0.0223414
O	0.0052364	0.5476971	1.2858375
H	0.8865445	0.5036881	1.6954109
C	0.9474728	1.6998947	5.1143390
H	1.3811039	0.8070043	4.6363828
H	1.4110085	2.6598110	4.8360382
O	0.0126406	1.6300718	5.9023443
