11
0.00150676 (energy)
C	0.0622694	-0.0562875	-0.0014558
H	-0.7414309	0.6702060	0.0173345
C	-0.1132891	-1.3566332	-0.2384936
H	-1.1083733	-1.7469133	-0.4283957
H	0.7104852	-2.0607785	-0.2510574
O	1.2707338	0.5267883	0.2471994
H	1.9595775	-0.1596347	0.2205758
C	4.9590133	1.8373580	0.0954010
H	4.7533007	0.8712463	0.5832963
H	5.9056598	2.3222599	0.3826053
O	4.1869855	2.3387812	-0.7122416
