11
-0.00356858 (energy)
C	0.0533619	0.0408692	0.0503001
H	-0.6353707	-0.4866225	-0.5989149
C	-0.1478563	0.2299723	1.3547762
H	-1.0454781	-0.1541090	1.8294661
H	0.5594867	0.7621956	1.9800656
O	1.1472618	0.4845524	-0.6343321
H	1.7353429	0.9499735	-0.0147073
C	3.9308035	-1.3457899	1.3148983
H	4.5481012	-2.2412499	1.4904724
H	2.8435758	-1.5191082	1.2742466
O	4.4204464	-0.2321363	1.1743121
