11
0.00137878 (energy)
C	-0.0484966	0.0393965	0.0560703
H	0.5774404	-0.4690870	-0.6676200
C	0.4210315	0.6965439	1.1170167
H	1.4902125	0.7460727	1.2986001
H	-0.2297766	1.1964039	1.8249514
O	-1.3718332	-0.0781993	-0.2556095
H	-1.8937798	0.3911681	0.4179312
C	3.1750576	-2.2995678	1.4201623
H	3.6649082	-1.5991594	0.7250322
H	3.8085302	-3.1208988	1.7914895
O	2.0045782	-2.1735809	1.7575701
