11
0.00100901 (energy)
C	-0.0327851	-0.0714047	-0.0295701
H	0.3903664	0.8502033	0.3520863
C	-0.0687343	-1.2151341	0.6548985
H	0.3416937	-1.2630665	1.6588034
H	-0.4988890	-2.1224315	0.2470249
O	-0.5216234	0.0873878	-1.2936963
H	-0.8898970	-0.7612874	-1.5945550
C	3.4198066	-0.7862399	-1.1686459
H	2.9232790	-0.3744559	-2.0617448
H	4.3447760	-1.3537017	-1.3588416
O	2.9733921	-0.6240333	-0.0398669
