11
-0.00249123 (energy)
C	-0.8036248	-0.8589668	-0.7853155
H	-1.8547257	-1.0433565	-0.5975196
C	-0.0447494	-0.0494926	-0.0458791
H	-0.4723472	0.4733790	0.8040263
H	1.0051702	0.1159208	-0.2577516
O	-0.3582527	-1.5575046	-1.8696962
H	0.5858223	-1.3623249	-2.0001505
C	4.6776202	0.2397888	-0.7869870
H	5.6229754	0.4076166	-0.2467383
H	4.4822569	0.9259375	-1.6265041
O	3.8961338	-0.6500355	-0.4751687
