11
-0.00231716 (energy)
C	-0.2823640	0.9713826	0.9884551
H	0.0542439	0.9042208	2.0162024
C	-0.0169723	0.0564573	0.0555106
H	0.5693965	-0.8225115	0.3048284
H	-0.3673103	0.1502841	-0.9657839
O	-1.0088186	2.1061524	0.7722282
H	-1.2889253	2.1243915	-0.1592215
C	3.9312965	-0.9831928	0.5291286
H	5.0234469	-0.9444355	0.3897132
H	3.4333478	-0.0080695	0.6513478
O	3.3121351	-2.0396287	0.5470467
