11
-0.00323788 (energy)
C	1.3813228	0.1592956	-0.2587070
H	1.9430914	-0.4600817	-0.9478136
C	0.0791207	0.0103345	-0.0137853
H	-0.4849434	-0.7686146	-0.5174160
H	-0.4571326	0.6455636	0.6815557
O	2.1728959	1.1062995	0.3233485
H	1.6291476	1.6365776	0.9312416
C	4.2535738	0.7894450	2.8800445
H	4.3431417	0.0277362	2.0891536
H	4.8732997	1.6901286	2.7441596
O	3.5145059	0.6446519	3.8457321
