11
-0.00387695 (energy)
C	-1.0414257	0.4288396	-0.8046738
H	-1.8092121	-0.3193678	-0.9620579
C	-1.0764347	1.6547954	-1.3278498
H	-1.9097438	1.9566243	-1.9548019
H	-0.2931524	2.3831285	-1.1529709
O	-0.0393505	-0.0416095	-0.0067289
H	0.6245206	0.6603726	0.1067933
C	3.7308602	-0.1824850	-0.6180037
H	3.0968589	-0.7280856	-1.3350070
H	4.5255251	-0.7765446	-0.1390916
O	3.5634660	1.0050194	-0.3699084
