11
0.00185925 (energy)
C	0.2473811	-1.3302732	0.2917990
H	1.0749690	-1.4816672	0.9746300
C	-0.4787240	-2.3190116	-0.2307661
H	-0.2557360	-3.3512556	0.0208736
H	-1.3018110	-2.1373124	-0.9120118
O	0.0443924	-0.0052163	0.0364307
H	-0.7045392	0.0827869	-0.5781812
C	1.8307656	-0.1439839	-3.3735037
H	0.9359783	0.3408236	-3.7954619
H	2.7351016	-0.1001674	-4.0012077
O	1.8208325	-0.6948018	-2.2797762
