11
0.00209448 (energy)
C	1.0985057	0.3058179	-0.7846855
H	1.4813029	-0.5365427	-1.3485783
C	1.6215574	1.5315721	-0.8276973
H	2.4839637	1.7348297	-1.4550055
H	1.2170046	2.3558452	-0.2519425
O	0.0183088	-0.0464457	-0.0288562
H	-0.2905737	0.7371260	0.4579682
C	3.2143969	-0.6271738	1.2076351
H	2.8707100	0.0778730	1.9812757
H	2.8330341	-1.6566109	1.3002504
O	3.9698826	-0.2891800	0.3050055
