11
-0.00433007 (energy)
C	-0.6065739	1.2438261	0.0305858
H	0.0154739	2.0234701	0.4540146
C	-1.8440531	1.4419938	-0.4246957
H	-2.2879092	2.4319246	-0.3846623
H	-2.4435226	0.6421024	-0.8434947
O	0.0351593	0.0395367	0.0229294
H	-0.5580040	-0.6274767	-0.3639055
C	2.1769300	-2.0923128	0.8636756
H	3.0497536	-1.7999714	0.2583272
H	1.9782828	-1.4625008	1.7455101
O	1.4744399	-3.0531748	0.5755943
