11
-0.00318967 (energy)
C	-1.2304698	0.6325544	-0.0423058
H	-1.4351193	1.1285329	-0.9836899
C	-2.0714802	0.6200914	0.9923210
H	-3.0287882	1.1273875	0.9231415
H	-1.8396167	0.1150801	1.9227970
O	-0.0083351	0.0255095	-0.0510381
H	0.1322841	-0.4048535	0.8100107
C	2.5709339	1.6080007	0.0830600
H	1.9710265	2.0758253	0.8799179
H	2.4511227	2.0460001	-0.9207117
O	3.3208734	0.6641507	0.2986447
