29
0 (energy)
C	-1.6686100	2.9571994	-0.2480874
C	-2.9198825	3.0578685	-0.7139849
H	-0.8365140	3.3919684	-0.7913003
H	-1.4482584	2.4403363	0.6824831
H	-3.1402084	3.5725217	-1.6410719
C	-4.0543816	2.4651602	0.0261061
O	-3.9668088	1.8565847	1.0790440
O	-5.1859661	2.7188486	-0.6770132
C	-6.3982786	2.2155789	-0.0976294
C	-6.6323781	0.7818937	-0.5354505
H	-7.2137985	2.8491607	-0.4615488
H	-6.3852649	2.3040849	0.9948847
H	-6.6440890	0.7105728	-1.6280170
H	-7.5839846	0.4082616	-0.1470077
H	-5.8295157	0.1271234	-0.1821585
C	-15.2039176	0.1418257	1.5449263
H	-16.1207273	0.6149987	1.8837209
H	-14.4793315	0.7778995	1.0500011
H	-15.7898049	-1.7335531	2.2512252
C	-15.0093239	-1.1665844	1.7446989
C	-13.8527671	-1.9417569	1.3574017
C	-12.7594898	-1.4992850	0.7269778
H	-13.8981446	-2.9984714	1.6170994
H	-12.6177358	-0.4704619	0.4267514
O	-11.7269472	-2.3459011	0.4159716
C	-10.6578984	-1.6825295	-0.2523684
H	-9.8792311	-2.4208906	-0.4644369
H	-10.2272464	-0.9012685	0.3832619
H	-10.9976907	-1.2580918	-1.2032793
