29
0 (energy)
C	-3.8240390	4.2301142	-2.1567169
C	-4.2970738	3.8921975	-0.9505130
H	-3.9324062	5.2416567	-2.5329169
H	-3.3200780	3.5069044	-2.7928415
H	-4.7993943	4.6120995	-0.3162282
C	-4.1497295	2.5133650	-0.4374471
O	-3.6115321	1.5949211	-1.0320187
O	-4.7189426	2.4656158	0.7925669
C	-4.6631599	1.1911056	1.4492097
C	-5.8480211	0.3374630	1.0376984
H	-4.7051849	1.3840507	2.5262157
H	-3.7133968	0.6810749	1.2506941
H	-6.7881182	0.8597393	1.2435383
H	-5.8469227	-0.6135954	1.5776340
H	-5.8279983	0.1293073	-0.0367306
C	-9.8601626	-2.5897070	1.8449384
H	-9.7831894	-3.4910616	2.4456457
H	-9.0298064	-2.3701713	1.1839705
H	-11.7324832	-2.1031068	2.6303069
C	-10.9423402	-1.8089754	1.9401376
C	-11.1967303	-0.5849334	1.2152087
C	-10.4002556	-0.0013030	0.3132804
H	-12.1459589	-0.1025079	1.4440716
H	-9.4398402	-0.3996377	0.0172421
O	-10.7637444	1.1669057	-0.3054216
C	-9.7813615	1.6250322	-1.2298942
H	-10.1436282	2.5547566	-1.6780551
H	-9.6299696	0.8932167	-2.0307577
H	-8.8351858	1.8349815	-0.7194918
