29
0 (energy)
C	-2.6012824	0.0802897	0.0228401
C	-3.4022879	0.8865985	-0.6850682
H	-2.1469743	-0.7924075	-0.4337687
H	-2.3823289	0.2730041	1.0700193
H	-3.6210207	0.6952015	-1.7283442
C	-4.0219266	2.0761866	-0.0629316
O	-3.8731305	2.4219376	1.0968215
O	-4.7743534	2.6935282	-1.0073686
C	-5.4519250	3.8825545	-0.5763458
C	-6.7927657	3.5277156	0.0386165
H	-5.6075107	4.5022309	-1.4655759
H	-4.8342311	4.4647389	0.1172719
H	-7.3978174	2.9482389	-0.6663974
H	-7.3430237	4.4309717	0.3168043
H	-6.6637692	2.9081740	0.9317320
C	-9.9496007	1.5395968	1.7692899
H	-9.3046469	2.2949506	2.2082541
H	-10.9995718	1.7898102	1.6717207
H	-8.3726187	0.1956544	1.5121625
C	-9.4403780	0.3660495	1.3778923
C	-10.1586397	-0.7363539	0.7801283
C	-11.4662019	-0.7926854	0.5052124
H	-9.5489835	-1.6049575	0.5351902
H	-12.1553433	0.0148408	0.7094000
O	-12.0247749	-1.9065251	-0.0666139
C	-13.4267578	-1.7680982	-0.2784804
H	-13.7945554	-2.6918722	-0.7343744
H	-13.6364771	-0.9392805	-0.9632686
H	-13.9509265	-1.6211275	0.6720376
