29
0 (energy)
C	-4.3180155	3.0688472	2.5998870
C	-3.7386573	2.6509755	1.4673654
H	-3.7570057	3.1151115	3.5270416
H	-5.3613735	3.3727788	2.6262177
H	-2.6992805	2.3478786	1.4403480
C	-4.5031303	2.5875734	0.2033689
O	-5.6765430	2.8928541	0.0744608
O	-3.6687680	2.1309661	-0.7633613
C	-4.2470726	2.0098619	-2.0708647
C	-4.9154748	0.6565346	-2.2247702
H	-3.4283575	2.0999513	-2.7923392
H	-4.9471317	2.8282919	-2.2750199
H	-4.2034934	-0.1495321	-2.0191874
H	-5.3081952	0.5309320	-3.2377058
H	-5.7398200	0.5423413	-1.5137553
C	-10.7975960	2.4675423	0.7079960
H	-11.1401416	3.4897657	0.8381344
H	-11.5572394	1.7171241	0.5225771
H	-8.7949049	2.9968605	0.9691829
C	-9.4925969	2.1818297	0.7791207
C	-8.8786227	0.8821485	0.6295232
C	-9.4971288	-0.2795415	0.3920408
H	-7.7937015	0.8712743	0.7242604
H	-10.5683302	-0.3748816	0.2818371
O	-8.7913150	-1.4486577	0.2711190
C	-9.6314633	-2.5714738	0.0200405
H	-8.9972741	-3.4588204	-0.0629830
H	-10.1746798	-2.4473850	-0.9230256
H	-10.3321004	-2.7255796	0.8478067
