29
0 (energy)
C	-2.1043344	0.6398396	0.1190329
C	-3.2120685	1.0018442	-0.5403270
H	-1.5428202	-0.2393014	-0.1781220
H	-1.7350913	1.2111156	0.9669521
H	-3.5806522	0.4331442	-1.3850921
C	-3.9778770	2.2000579	-0.1354228
O	-3.6915359	2.9381924	0.7918729
O	-5.0389393	2.3162395	-0.9720032
C	-5.8980287	3.4389453	-0.7267181
C	-6.9490587	3.0784994	0.3064121
H	-6.3845959	3.6829866	-1.6767877
H	-5.3238915	4.3220557	-0.4232841
H	-7.5142551	2.1963058	-0.0117275
H	-7.6452171	3.9083566	0.4572238
H	-6.4868622	2.8311271	1.2673016
C	-8.5813273	-0.0488708	-1.7772060
H	-7.9068245	-0.1675384	-2.6199268
H	-9.3459745	0.7139552	-1.8665200
H	-7.6510064	-1.5672306	-0.6871352
C	-8.4475463	-0.8238358	-0.6949653
C	-9.2575632	-0.7922167	0.5014409
C	-10.2926984	0.0161336	0.7535044
H	-8.9765439	-1.5135596	1.2674958
H	-10.6496318	0.7644238	0.0596980
O	-10.9804240	-0.0580187	1.9372117
C	-12.0455114	0.8852344	2.0111588
H	-12.5412384	0.7631377	2.9785366
H	-12.7822993	0.7023419	1.2215072
H	-11.6627447	1.9095810	1.9475869
