29
0 (energy)
C	-4.3216305	5.1356607	-0.2560878
C	-4.8445445	3.9693906	-0.6551527
H	-4.5732621	6.0604665	-0.7639302
H	-3.6332741	5.1925744	0.5833108
H	-5.5302935	3.9118454	-1.4914175
C	-4.5016051	2.7085104	0.0367283
O	-3.7467464	2.6112178	0.9893214
O	-5.1695729	1.7022012	-0.5800204
C	-4.9571072	0.3934922	-0.0315619
C	-3.7310943	-0.2442516	-0.6577556
H	-5.8443658	-0.2016983	-0.2712623
H	-4.8777828	0.4267602	1.0612283
H	-3.8263198	-0.2712903	-1.7482263
H	-3.5942644	-1.2650234	-0.2898610
H	-2.8289665	0.3327295	-0.4310717
C	-13.6643533	-0.6213013	2.3538241
H	-14.5826217	-0.4360932	2.9030922
H	-12.9906870	-1.3646333	2.7639425
H	-14.1388978	0.7841617	0.8845899
C	-13.4071723	0.0533311	1.2275728
C	-12.2395848	-0.0749510	0.3856712
C	-11.1964696	-0.8908031	0.5721309
H	-12.2293479	0.5725997	-0.4899547
H	-11.1113031	-1.5707367	1.4082793
O	-10.1461106	-0.9139796	-0.3086850
C	-9.1380064	-1.8481035	0.0664738
H	-8.3407526	-1.8065348	-0.6812770
H	-9.5396274	-2.8670330	0.0848835
H	-8.7099675	-1.5878430	1.0405811
