29
0 (energy)
C	-4.4623365	4.8206874	-1.4734165
C	-3.8198714	3.8025922	-0.8872437
H	-3.9376396	5.7341749	-1.7317222
H	-5.5224278	4.7647800	-1.7073919
H	-2.7637783	3.8575762	-0.6536934
C	-4.5348198	2.5572995	-0.5347942
O	-5.7193473	2.3458851	-0.7320495
O	-3.6413808	1.7150441	0.0410451
C	-4.1656195	0.4423132	0.4460110
C	-4.7453404	0.5356459	1.8449949
H	-3.3293085	-0.2644346	0.4407767
H	-4.9063190	0.0693673	-0.2708328
H	-3.9935435	0.9078913	2.5486711
H	-5.0943904	-0.4430145	2.1862157
H	-5.5854496	1.2366240	1.8761983
C	-9.1572025	1.1520461	1.6591364
H	-8.4944202	1.9568062	1.9629378
H	-8.9942577	0.1843582	2.1191310
H	-10.2143949	2.3814219	0.3437858
C	-10.1192302	1.3778894	0.7573546
C	-11.0765397	0.4212186	0.2505466
C	-11.1823857	-0.8690109	0.5860693
H	-11.7781604	0.8157253	-0.4831021
H	-10.5355815	-1.3552898	1.3029265
O	-12.1421392	-1.6723481	0.0264707
C	-12.0887738	-3.0097393	0.5144692
H	-12.8804787	-3.5827515	0.0232126
H	-12.2647385	-3.0364990	1.5952912
H	-11.1268137	-3.4740310	0.2717682
