29
0 (energy)
C	-5.0712370	0.3153998	1.8610829
C	-5.4330031	1.1091920	0.8452596
H	-5.8161269	-0.2134885	2.4458087
H	-4.0272407	0.1766762	2.1303249
H	-6.4729027	1.2480234	0.5764912
C	-4.4179087	1.8304726	0.0480999
O	-3.2132011	1.7771695	0.2285144
O	-5.0691785	2.5502503	-0.8989934
C	-4.2313988	3.3165813	-1.7762218
C	-3.9380453	4.6746036	-1.1665805
H	-4.7827631	3.4454332	-2.7134147
H	-3.3079388	2.7776803	-2.0178765
H	-4.8695893	5.2002964	-0.9324904
H	-3.3489401	5.2889030	-1.8533374
H	-3.3853099	4.5725099	-0.2273319
C	-11.3775509	-2.5910953	0.4931977
H	-11.7664219	-3.5943535	0.6397130
H	-11.7095290	-2.0625179	-0.3927833
H	-10.2476193	-2.6622972	2.2474362
C	-10.5304078	-2.0620189	1.3832201
C	-9.9270120	-0.7497546	1.3343226
C	-10.1005074	0.1831470	0.3919507
H	-9.2625751	-0.5167346	2.1652094
H	-10.7378953	0.0498730	-0.4709987
O	-9.4639793	1.3951510	0.4661554
C	-9.7796577	2.2470015	-0.6312522
H	-9.2363987	3.1871511	-0.4991112
H	-10.8519203	2.4696221	-0.6546780
H	-9.4617066	1.7959989	-1.5774770
