29
0 (energy)
C	-3.2406239	0.7850917	-2.2962627
C	-4.2741187	1.4533766	-1.7688525
H	-3.3497832	0.2353745	-3.2249087
H	-2.2663914	0.7721136	-1.8142189
H	-5.2450657	1.4666734	-2.2484220
C	-4.1257590	2.2026606	-0.5028791
O	-3.1006189	2.2810177	0.1526047
O	-5.3230948	2.7704273	-0.2143549
C	-5.3627213	3.5483476	0.9906088
C	-5.6731797	2.6578378	2.1791167
H	-6.1600843	4.2885915	0.8673735
H	-4.4289260	4.1031169	1.1384161
H	-6.6085526	2.1122551	2.0168130
H	-5.7639951	3.2499547	3.0940996
H	-4.8885370	1.9085688	2.3242345
C	-10.0762100	1.3836352	1.1273572
H	-9.4608442	2.2782161	1.1111014
H	-10.2774318	0.9461063	2.0982558
H	-10.2977186	1.3742676	-0.9487002
C	-10.5478214	0.8714579	-0.0149957
C	-11.3744284	-0.3046200	-0.1635778
C	-11.8240535	-1.1027860	0.8107114
H	-11.6488811	-0.5485340	-1.1889213
H	-11.6081212	-0.9470821	1.8584883
O	-12.6056574	-2.1939956	0.5314537
C	-12.9801924	-2.9129185	1.7029821
H	-13.5978226	-3.7624840	1.3976230
H	-13.5718414	-2.2811289	2.3742862
H	-12.0959421	-3.2991511	2.2214061
