29
0 (energy)
C	-3.1296168	4.5447063	0.9882155
C	-3.7803165	3.3807329	1.1091851
H	-2.9173699	5.1559954	1.8587125
H	-2.7957742	4.9116063	0.0209528
H	-4.1133594	3.0145856	2.0724713
C	-4.0700076	2.5472850	-0.0772253
O	-3.7617234	2.8239900	-1.2240062
O	-4.7333848	1.4421245	0.3444013
C	-5.0937259	0.5088709	-0.6841218
C	-6.4303773	0.8899750	-1.2924522
H	-5.1724609	-0.4749885	-0.2100358
H	-4.3115607	0.4357911	-1.4486259
H	-7.2004993	0.9573513	-0.5170182
H	-6.7423112	0.1518264	-2.0366819
H	-6.3771624	1.8712408	-1.7745444
C	-11.5692800	-1.8126313	-1.7713388
H	-11.4482292	-2.2498985	-2.7579281
H	-12.5830352	-1.7150614	-1.4007361
H	-9.5124258	-1.5573129	-1.5196814
C	-10.4969688	-1.4231989	-1.0726227
C	-10.4876396	-0.8278125	0.2441700
C	-11.5470595	-0.5535828	1.0128693
H	-9.4998495	-0.5842256	0.6328648
H	-12.5674348	-0.7565687	0.7190359
O	-11.3982390	0.0159154	2.2510745
C	-12.6438828	0.2274175	2.9092873
H	-12.4408429	0.6814230	3.8835186
H	-13.1627967	-0.7230663	3.0741043
H	-13.2755165	0.9136493	2.3348637
