29
0 (energy)
C	-3.5396589	-0.4526972	-0.0233674
C	-3.7986163	0.6677378	-0.7092567
H	-3.2799616	-1.3717563	-0.5375422
H	-3.5811498	-0.4769597	1.0626130
H	-3.7576240	0.6926813	-1.7911991
C	-4.1528631	1.9206879	-0.0087203
O	-4.2406626	2.0503224	1.2004932
O	-4.3609165	2.8763978	-0.9481619
C	-4.7126441	4.1723136	-0.4426348
C	-6.2131428	4.2653380	-0.2382009
H	-4.3975309	4.9047415	-1.1930939
H	-4.1673057	4.4023030	0.4800247
H	-6.7429298	4.0345337	-1.1682441
H	-6.4982255	5.2685598	0.0909158
H	-6.5533104	3.5423397	0.5099213
C	-9.9367129	0.5697618	-1.9083413
H	-10.3849700	0.5473672	-2.8971681
H	-10.6121361	0.6768750	-1.0675701
H	-8.0030277	0.3626636	-2.6680385
C	-8.6100814	0.4675784	-1.7693440
C	-7.8628710	0.4800484	-0.5323978
C	-8.3546475	0.5958738	0.7058314
H	-6.7839015	0.3833207	-0.6447202
H	-9.4087699	0.6968898	0.9233830
O	-7.5299870	0.5933239	1.8010741
C	-8.2460606	0.7270058	3.0253997
H	-7.5223125	0.7162387	3.8454884
H	-8.9369367	-0.1114404	3.1652351
H	-8.7877292	1.6785470	3.0570570
