29
0 (energy)
C	-6.8633527	1.0914004	-1.1949443
C	-5.6570438	1.6460862	-1.3682072
H	-7.5157269	0.9039949	-2.0409792
H	-7.2248392	0.8132711	-0.2082147
H	-5.2962462	1.9235843	-2.3509186
C	-4.7675694	1.9018949	-0.2151576
O	-5.0316662	1.6470531	0.9476062
O	-3.6281709	2.4656970	-0.6875095
C	-2.6386687	2.7799015	0.3028584
C	-2.8968296	4.1580394	0.8825412
H	-1.6667638	2.7690699	-0.2013435
H	-2.6024467	2.0152857	1.0874858
H	-2.9286318	4.9099149	0.0871815
H	-2.1142567	4.4315258	1.5958635
H	-3.8639390	4.1943183	1.3939224
C	-13.7053969	0.4832082	-0.7177612
H	-14.5537507	0.9368311	-1.2214839
H	-12.7255187	0.8798536	-0.9566689
H	-14.9146292	-0.8551147	0.3338171
C	-13.8953612	-0.5162237	0.1510095
C	-12.8797676	-1.2217495	0.8988851
C	-11.5597436	-1.0100069	0.8646396
H	-13.2526237	-2.0068639	1.5551786
H	-11.0910143	-0.2562423	0.2475181
O	-10.7003949	-1.7554410	1.6298034
C	-9.3389547	-1.3759030	1.4508142
H	-8.7215006	-2.0127492	2.0908534
H	-9.1833926	-0.3336688	1.7498196
H	-9.0267533	-1.5265821	0.4117455
