29
0 (energy)
C	-3.5921796	2.1633154	2.5824351
C	-4.4048718	2.6249400	1.6236276
H	-3.6083793	2.5917681	3.5787552
H	-2.8953044	1.3504918	2.3944287
H	-5.0993257	3.4347919	1.8101091
C	-4.3829261	2.0412914	0.2653203
O	-3.6590513	1.1296017	-0.0973620
O	-5.2991756	2.7023150	-0.4848482
C	-5.4185034	2.2598083	-1.8444865
C	-4.4102129	2.9798602	-2.7201683
H	-6.4334756	2.5062511	-2.1731707
H	-5.3110398	1.1716006	-1.9209406
H	-4.5313961	4.0646598	-2.6338558
H	-4.5324239	2.6932309	-3.7684773
H	-3.3858104	2.7483174	-2.4117612
C	-8.8254968	-0.4659411	-1.5489315
H	-8.1717662	-0.3427516	-2.4072293
H	-8.9864409	-1.4786819	-1.1981912
H	-9.1747071	1.5864484	-1.3910792
C	-9.3896851	0.6026816	-0.9749540
C	-10.2771493	0.6088356	0.1656092
C	-10.7021568	-0.4504389	0.8625864
H	-10.6252012	1.5938393	0.4734649
H	-10.4151311	-1.4681941	0.6378697
O	-11.5488958	-0.3048670	1.9309823
C	-11.8832333	-1.5497508	2.5376851
H	-12.5569667	-1.3494284	3.3757943
H	-10.9874332	-2.0453683	2.9272507
H	-12.4026657	-2.2015388	1.8269108
