29
0 (energy)
C	-4.8687468	-0.4995725	0.5003105
C	-4.6283314	0.7688978	0.8553615
H	-4.7997726	-1.3026084	1.2261644
H	-5.1386722	-0.7632368	-0.5191429
H	-4.3592243	1.0323674	1.8707762
C	-4.7220475	1.8637957	-0.1338512
O	-5.0115814	1.7265488	-1.3103055
O	-4.4268064	3.0242414	0.5028719
C	-4.4743408	4.2044033	-0.3117605
C	-3.1387562	4.4213368	-0.9981254
H	-4.6856114	5.0458812	0.3562332
H	-5.2946898	4.1558555	-1.0371984
H	-2.3307572	4.4689683	-0.2607014
H	-3.1455658	5.3504632	-1.5749457
H	-2.9049389	3.5923977	-1.6736377
C	-8.5728862	-0.9845891	-1.8542344
H	-8.3806843	-1.5533777	-2.7590837
H	-7.8706817	-0.1945461	-1.6148462
H	-10.2916158	-2.0822522	-1.4067165
C	-9.6351716	-1.2711038	-1.0932008
C	-10.0283782	-0.6136735	0.1322334
C	-9.4062721	0.4039872	0.7370655
H	-10.9322476	-1.0059666	0.5962094
H	-8.5041311	0.8634382	0.3579174
O	-9.8880180	0.9388160	1.9039019
C	-9.0846096	2.0117006	2.3866639
H	-9.5323890	2.3813481	3.3136629
H	-9.0602812	2.8347494	1.6642689
H	-8.0687779	1.6673044	2.6087337
