29
0 (energy)
C	-4.0578438	-0.2248735	1.2176137
C	-4.3976958	1.0702292	1.2082856
H	-3.9406364	-0.7621090	2.1525621
H	-3.8897131	-0.7752280	0.2953850
H	-4.5652349	1.6192613	2.1266517
C	-4.5573524	1.8029491	-0.0659818
O	-4.4022153	1.3249620	-1.1769147
O	-4.8979828	3.0816474	0.2308676
C	-5.1004744	3.9441204	-0.8977622
C	-3.7826270	4.5590621	-1.3302760
H	-5.7875078	4.7342259	-0.5773652
H	-5.5852236	3.4122478	-1.7246355
H	-3.3121860	5.0873400	-0.4944931
H	-3.9348932	5.2638037	-2.1525886
H	-3.0777022	3.7880118	-1.6569100
C	-11.0258175	2.3414545	0.9233189
H	-11.6574374	3.2238406	0.9641288
H	-10.1982799	2.2997129	1.6218924
H	-12.1374077	1.4917112	-0.6263492
C	-11.2844493	1.3700415	0.0406075
C	-10.5456105	0.1411949	-0.1398597
C	-9.4651480	-0.2575480	0.5399020
H	-10.9280062	-0.5162704	-0.9193855
H	-9.0092526	0.3213424	1.3309471
O	-8.8557786	-1.4549593	0.2669494
C	-7.7242622	-1.6951094	1.0985767
H	-7.2971986	-2.6629595	0.8204479
H	-8.0188800	-1.7392060	2.1526695
H	-6.9598615	-0.9253789	0.9467733
