29
0 (energy)
C	-4.3091579	0.8372213	-2.6437217
C	-4.3574411	0.8654913	-1.3059074
H	-4.1074526	-0.0876439	-3.1732755
H	-4.4693012	1.7335678	-3.2375069
H	-4.1978654	-0.0270560	-0.7136264
C	-4.6321581	2.1260699	-0.5836899
O	-4.8305837	3.2088023	-1.1081219
O	-4.6175110	1.8543910	0.7449162
C	-4.8732667	2.9729989	1.6062947
C	-3.5821295	3.7133899	1.9007926
H	-5.2877741	2.5718404	2.5369888
H	-5.6299755	3.6410572	1.1788843
H	-2.8378547	3.0333978	2.3280993
H	-3.7566311	4.5327318	2.6038372
H	-3.1478814	4.1257023	0.9845206
C	-7.8961940	0.9957399	-1.8092227
H	-7.3941613	1.4771186	-2.6431605
H	-7.9278942	-0.0875433	-1.8168628
H	-8.3625104	2.8187546	-0.9046044
C	-8.4393687	1.7341363	-0.8348280
C	-9.1371163	1.2509211	0.3348584
C	-9.3719060	-0.0236382	0.6647728
H	-9.5026773	2.0263560	1.0065827
H	-9.0512222	-0.8648802	0.0662907
O	-10.0507022	-0.3474872	1.8110648
C	-10.1969013	-1.7543364	1.9813784
H	-10.7449096	-1.9290402	2.9117752
H	-9.2183600	-2.2399263	2.0620958
H	-10.7724435	-2.1880619	1.1564717
