11
-0.00259524 (energy)
C	0.0267802	-0.0263937	0.0750605
H	-0.3188667	0.3142655	-0.8937324
C	-0.7139099	0.0021057	1.1834253
H	-1.7298826	0.3832983	1.1507861
H	-0.3411668	-0.3457851	2.1397815
O	1.3103544	-0.4858945	0.0159907
H	1.5775487	-0.7798609	0.9040121
C	4.1891690	0.6839019	-1.6661579
H	3.1810686	0.5463785	-2.0887124
H	4.8959676	1.2458303	-2.2973694
O	4.5031342	0.2416882	-0.5681543
