11
-0.00233169 (energy)
C	0.0363520	-0.0404671	-0.0639439
H	-0.4328375	0.4818349	0.7613693
C	-0.6046566	-0.8838669	-0.8736915
H	-1.6616184	-1.0835991	-0.7270196
H	-0.1088009	-1.3926427	-1.6921395
O	1.3602327	0.2736957	-0.1680342
H	1.7388470	-0.2158133	-0.9186493
C	4.7732845	-0.3813699	0.0704761
H	4.6396488	0.4729944	-0.6121179
H	4.8871914	-0.1246696	1.1357864
O	4.7938414	-1.5390835	-0.3282913
