11
-0.0021788 (energy)
C	0.0271250	-0.0779353	-0.0154340
H	-0.3229730	0.9279619	0.1837702
C	0.3144067	-0.5402024	-1.2326788
H	0.2024967	0.1023541	-2.1005330
H	0.6631506	-1.5522971	-1.4018674
O	0.1358317	-0.8072787	1.1327968
H	0.4517746	-1.6992289	0.9069740
C	3.7722360	-0.0461679	-0.1884242
H	3.0632627	-0.2573997	0.6279516
H	4.2279304	0.9567717	-0.1739126
O	4.0361599	-0.8711026	-1.0541988
