11
-0.00350634 (energy)
C	0.1563708	1.0392056	0.9465500
H	-0.6168380	1.3467339	1.6405635
C	0.0104371	0.0597283	0.0536704
H	-0.9265945	-0.4847403	-0.0103577
H	0.8023223	-0.2264342	-0.6286869
O	1.2926165	1.7786956	1.1024128
H	1.9563376	1.4693737	0.4619557
C	4.8938285	-0.9934488	-0.4125247
H	5.3662124	-1.9751162	-0.5765786
H	5.4835674	-0.1221836	-0.7394207
O	3.7871167	-0.8783952	0.0990322
