29
-0.00258257 (energy)
C	1.4988978	-2.8890160	1.4210821
C	0.6704500	-2.0401628	0.7997930
H	1.2459704	-3.9389465	1.5218883
H	2.4443835	-2.5555872	1.8412554
H	-0.2717475	-2.3715497	0.3810468
C	1.0147864	-0.6088439	0.6623712
O	2.0342408	-0.0868936	1.0806915
O	0.0000000	0.0000000	0.0000000
C	0.1687623	1.4062866	-0.2292266
C	-0.3407797	2.1960771	0.9617987
H	-0.4202339	1.6585998	-1.1171216
H	1.2129282	1.6512867	-0.4556822
H	-1.3843428	1.9413886	1.1740134
H	-0.2710851	3.2710059	0.7728159
H	0.2338893	1.9618453	1.8634740
C	5.0021146	3.7801681	6.6387891
H	4.9240383	4.0428863	7.6895496
H	4.9562616	2.7254607	6.3937267
H	5.1841305	5.7744439	6.0481098
C	5.1473246	4.7374814	5.7156540
C	5.2648013	4.5555638	4.2868012
C	5.2506996	3.3979874	3.6172572
H	5.3759609	5.4744252	3.7127935
H	5.1454209	2.4331847	4.0934705
O	5.3720392	3.3652012	2.2520357
C	5.3336821	2.0397965	1.7310400
H	5.4358264	2.0988579	0.6435884
H	4.3766250	1.5592004	1.9610940
H	6.1650780	1.4438709	2.1228197
