29
-0.00221452 (energy)
C	-0.9035363	0.1078435	-2.4697866
C	-1.4322940	-0.3033371	-1.3103800
H	-1.4754564	0.0585392	-3.3900933
H	0.1082965	0.5012390	-2.5254456
H	-2.4402293	-0.6955160	-1.2541314
C	-0.6529161	-0.2364796	-0.0556984
O	0.4898429	0.1774162	0.0417871
O	-1.4338196	-0.7169312	0.9435884
C	-0.8342971	-0.7218087	2.2471285
C	-0.0465402	-2.0014471	2.4566703
H	-1.6507038	-0.6690760	2.9748889
H	-0.2079601	0.1644195	2.4016962
H	-0.6858667	-2.8765010	2.3002487
H	0.3656711	-2.0417376	3.4688473
H	0.7777230	-2.0771462	1.7404390
C	2.9988240	-0.7916393	-6.1052863
H	2.8093782	-1.1170371	-7.1238347
H	3.3005000	-1.5539935	-5.3965032
H	2.5501357	1.1986342	-6.5487482
C	2.8573053	0.4967538	-5.7740329
C	3.0694733	1.0871825	-4.4721521
C	3.4468350	0.4590341	-3.3534480
H	2.8976009	2.1613584	-4.4196775
H	3.6419092	-0.6029900	-3.3009324
O	3.6130003	1.1421680	-2.1764411
C	4.0167066	0.2950674	-1.1045048
H	4.1269863	0.9110809	-0.2073768
H	4.9830788	-0.1727890	-1.3215092
H	3.2575577	-0.4691830	-0.9058798
