29
-0.00126747 (energy)
C	-2.6722389	-0.0177138	-2.3391040
C	-1.9400524	0.0336797	-1.2192204
H	-3.7528470	0.0679355	-2.3011758
H	-2.2105894	-0.1460238	-3.3148499
H	-2.3992464	0.1613507	-0.2467273
C	-0.4670203	-0.0832493	-1.2705037
O	0.1923330	-0.2314667	-2.2853908
O	0.0000000	0.0000000	0.0000000
C	1.4250496	-0.0900356	0.1406944
C	1.8505358	-1.5426992	0.2440055
H	1.6893367	0.4371851	1.0632597
H	1.9403054	0.4211860	-0.6807395
H	1.3286939	-2.0384314	1.0691455
H	2.9286089	-1.6201010	0.4107717
H	1.5977852	-2.0919748	-0.6684312
C	4.8766486	1.2743817	1.4141399
H	4.9964941	0.7920199	0.4486460
H	4.8248967	2.3569158	1.4168715
H	4.8605960	-0.5459707	2.4365035
C	4.7998250	0.5380193	2.5284027
C	4.6410565	1.0227441	3.8805674
C	4.5409681	2.2969547	4.2740656
H	4.6010404	0.2488926	4.6458779
H	4.5693153	3.1366836	3.5938018
O	4.3926489	2.6223850	5.5975929
C	4.3045926	4.0285446	5.8087013
H	4.1884913	4.2045918	6.8820143
H	3.4310648	4.4447811	5.2953280
H	5.2195177	4.5298275	5.4748372
