29
-0.00198585 (energy)
C	3.4701035	-3.6522094	-0.8476347
C	2.3284772	-3.0248599	-1.1574727
H	3.6805596	-4.6449005	-1.2307282
H	4.2169582	-3.1902239	-0.2069779
H	1.5838530	-3.4845110	-1.7955617
C	2.0411484	-1.6717592	-0.6352787
O	2.7771507	-1.0272629	0.0924825
O	0.8269439	-1.2944578	-1.1070509
C	0.3848331	0.0086549	-0.7007222
C	-0.3316054	-0.0738188	0.6341401
H	-0.3089740	0.3650791	-1.4691813
H	1.2182717	0.7197834	-0.6651418
H	-1.1613636	-0.7863390	0.5817803
H	-0.7242623	0.9046912	0.9246268
H	0.3425551	-0.4273185	1.4206977
C	3.1055389	7.0072075	3.9337409
H	2.9517656	8.0122968	4.3150067
H	3.0411948	6.8764178	2.8598136
H	3.4080414	6.2187829	5.8432033
C	3.3604807	6.0002683	4.7768252
C	3.5872718	4.6152322	4.4322158
C	3.5853774	4.0780706	3.2075016
H	3.7784369	3.9553613	5.2773039
H	3.4063563	4.6466391	2.3056212
O	3.8162944	2.7400041	3.0180722
C	3.7719855	2.3663138	1.6440278
H	3.9645116	1.2916077	1.5775942
H	4.5462995	2.8904544	1.0734403
H	2.7824074	2.5654860	1.2187004
