29
-0.00182935 (energy)
C	-0.3699969	1.0516971	-2.3843006
C	-0.2081209	1.5714374	-1.1609674
H	-0.5112142	1.6939201	-3.2469102
H	-0.3651709	-0.0224964	-2.5508799
H	-0.2129476	2.6415112	-0.9941725
C	-0.0158073	0.6963077	0.0151658
O	0.0118592	-0.5223970	-0.0113780
O	0.1169805	1.4910397	1.1060309
C	0.3188226	0.8037670	2.3492459
C	-1.0170929	0.4391000	2.9691579
H	0.8561245	1.4909574	3.0110707
H	0.9545210	-0.0796003	2.2183280
H	-1.6391420	1.3314304	3.0945632
H	-0.8756259	-0.0327603	3.9455691
H	-1.5739316	-0.2494240	2.3257352
C	7.0017651	-3.6393839	-3.3280888
H	7.6669396	-4.2515090	-3.9298030
H	5.9425302	-3.8594122	-3.3927016
H	8.5771858	-2.5130627	-2.5479491
C	7.4986622	-2.6677198	-2.5543478
C	6.7537066	-1.7713055	-1.6999488
C	5.4287269	-1.7428587	-1.5208106
H	7.3571802	-1.0489470	-1.1520752
H	4.7437879	-2.4160946	-2.0171159
O	4.8452943	-0.8348621	-0.6753659
C	3.4278142	-0.9678051	-0.6235789
H	3.0406050	-0.2134452	0.0674225
H	3.1435673	-1.9567004	-0.2478855
H	2.9844990	-0.7910794	-1.6095188
