31
-0.00695873 (energy)
C	-0.4700281	-0.1351443	-0.0322527
O	0.1136282	-0.3548803	-1.0932499
O	0.1686587	0.4197671	1.0631985
H	1.1164488	0.5793402	0.8609641
N	-2.7747209	-0.6327262	-0.8595601
C	-3.6111378	0.0614937	-3.0182955
H	-3.8412886	-0.9456276	-3.3419836
H	-3.8469745	0.8594284	-3.7106882
C	-3.0343828	0.3444072	-1.8277163
C	-2.6782100	1.7666423	-1.4509043
H	-1.5952038	1.9035509	-1.3453309
H	-3.0193508	2.4524583	-2.2291879
H	-3.1475442	2.0669286	-0.5053072
C	-3.2086956	-2.5365070	0.4523092
C	-3.2547468	-2.0137439	-0.9925243
C	-1.9189825	-0.4475573	0.3099735
C	-1.9800314	-1.8248070	1.0563281
H	-4.1212762	-2.2413887	0.9827671
H	-3.1223759	-3.6259561	0.5060033
H	-4.2682597	-2.0118301	-1.4074348
H	-2.6157476	-2.6086739	-1.6645023
H	-2.2814035	0.3577219	0.9600192
H	-1.0725970	-2.4022930	0.8453776
H	-2.0421827	-1.6866824	2.1380879
C	2.6174330	-1.8334877	1.6525017
H	2.0114472	-2.4214756	0.9372155
O	2.9705889	-0.6838012	1.3669951
C	2.9537529	-2.5311225	2.9406293
H	3.5083052	-3.4565023	2.7352253
H	3.5506092	-1.8804504	3.5832530
H	2.0332725	-2.8227695	3.4635742
