19
0.00101638 (energy)
C	-0.0623826	0.0523847	0.0215854
H	0.7427786	-0.6237360	-0.2570140
C	0.1907771	1.4226803	0.0570521
H	1.1788290	1.8006722	-0.1907472
C	-0.8256570	2.3026952	0.4089860
H	-0.6366065	3.3720674	0.4375655
C	-2.0929684	1.8098832	0.7244723
H	-2.8756080	2.5137551	0.9946739
C	-2.3641578	0.4357630	0.6975391
N	-3.6419878	-0.0052004	1.0019477
H	-3.8633465	-0.9895120	1.0141483
H	-4.3569253	0.6523713	1.2785032
C	-1.5630358	-1.9390180	0.2854904
H	-0.6556569	-2.4763845	-0.0101847
H	-2.3410452	-2.1785668	-0.4464681
H	-1.8600383	-2.3123088	1.2709365
C	-1.3354911	-0.4535228	0.3381399
Br	2.1002278	-0.9125522	2.4020302
H	3.5208818	-1.1635492	2.2475845
