11
-0.00304771 (energy)
C	-0.0770537	0.0244932	-0.0225984
H	0.9174657	-0.2916360	0.2690751
C	-0.5387977	-0.0252427	-1.2724885
H	0.0923311	-0.3995739	-2.0725675
H	-1.5393119	0.2982494	-1.5349897
O	-0.7927445	0.4776485	1.0472755
H	-1.6747999	0.7494610	0.7398880
C	4.3656828	-0.8510218	0.1500578
H	4.9533330	-0.8259301	1.0815990
H	4.9533305	-0.8761160	-0.7814980
O	3.1410445	-0.8510219	0.1500566
