11
0.030714 (energy)
C	-0.0094090	0.0020391	0.0833978
H	0.1120315	-0.0242796	-0.9930034
C	-0.2959680	-1.0663827	0.8278877
H	-0.4223730	-2.0383581	0.3611336
H	-0.4117554	-1.0099123	1.9039858
O	0.1675148	1.2619053	0.5769849
H	0.0497325	1.2380363	1.5423598
C	2.8233168	-0.1384599	-0.7246559
H	2.4131739	-0.5441582	-1.6632310
H	3.9033688	0.0787283	-0.7331875
O	2.1252969	0.0579717	0.2622188
