18
0.002514 (energy)
C	-0.5691456	0.1742143	-0.2830960
O	0.4806968	-0.1073572	0.2880671
H	-0.8522865	-0.3705033	-1.2010560
C	-1.5151331	1.2891374	0.0975067
Cl	-1.4438644	1.5667262	1.8599445
H	-2.5358310	0.9627865	-0.1263310
C	-1.1638701	2.5744905	-0.6579448
H	-0.1331031	2.8845164	-0.4478853
H	-1.8206035	3.3825417	-0.3142161
N	-1.3299333	2.4588530	-2.1147582
H	-0.5003726	2.0205057	-2.5210761
H	-1.3409149	3.3996433	-2.5165211
O	2.9727084	-0.5111639	2.0454563
H	3.1552898	-1.0526988	1.2587774
C	4.1894606	-0.3905155	2.7590746
H	4.0189112	0.2146491	3.6525554
H	4.9361415	0.0977200	2.1280480
H	4.5393092	-1.3825842	3.0549401
