31
-0.00558592 (energy)
C	-0.3905317	-0.2344357	-0.1215921
O	0.5139100	-0.5219137	-0.9037430
O	-0.1621512	0.6485259	0.8998267
H	-0.9326725	0.7819576	1.5099301
N	-2.8796965	0.1308903	0.0480153
C	-2.6696080	0.0648480	2.4644348
H	-1.9752284	-0.7673834	2.4864535
H	-3.0012572	0.4339365	3.4254467
C	-4.2967105	1.6281322	1.3979683
H	-5.2699776	1.2565320	1.0536578
H	-4.4154428	1.9630486	2.4298729
H	-4.0376085	2.4971008	0.7823392
C	-3.4361041	-0.7385390	-2.0724429
C	-3.5294077	0.5361893	-1.2151799
C	-1.8089818	-0.8504019	-0.2179974
C	-2.0922619	-1.3810944	-1.6514856
H	-4.2743677	-1.4022882	-1.8317605
H	-3.4742811	-0.5219457	-3.1441762
H	-4.5597045	0.8512900	-1.0431904
H	-2.9911854	1.3718032	-1.6885009
H	-1.8649638	-1.6605731	0.5233240
H	-1.2733286	-1.0826348	-2.3104421
H	-2.1382981	-2.4729240	-1.6681533
C	-3.2378079	0.5489922	1.3214079
C	3.2994130	-2.6584929	0.0466815
H	3.3920418	-3.0568631	-0.9815714
O	3.0535066	-3.4219459	0.9872567
C	3.4915106	-1.1741583	0.1842578
H	2.7581067	-0.6396026	-0.4341400
H	3.3834397	-0.8697614	1.2274452
H	4.4855084	-0.8864143	-0.1831454
