29
-0.00131264 (energy)
C	-0.3254446	0.0953350	0.5246377
C	0.3250024	-0.0636718	-0.6348938
H	0.0089877	-0.4111123	1.4236117
H	-1.2029781	0.7322618	0.6015979
H	1.1992560	-0.6981588	-0.7124092
C	-0.1307045	0.6263581	-1.8605838
O	-1.0948613	1.3692464	-1.9329008
O	0.7082018	0.2792734	-2.8680492
C	0.4163454	0.8668353	-4.1440815
C	-0.5893425	0.0147942	-4.8954543
H	1.3576129	0.9031461	-4.7023225
H	0.0658984	1.8999431	-4.0370080
H	-0.2243268	-1.0126945	-4.9952331
H	-0.7740999	0.4223301	-5.8933636
H	-1.5410516	-0.0362059	-4.3571457
C	3.7833247	-1.9782507	-3.4754148
H	3.5352222	-2.4176360	-4.4369761
H	3.4788760	-0.9506931	-3.3141630
H	4.7039812	-3.7258375	-2.7990275
C	4.4346083	-2.6986068	-2.5552899
C	4.8359303	-2.2643887	-1.2366124
C	4.6328988	-1.0623685	-0.6867063
H	5.3589196	-3.0136443	-0.6439524
H	4.1251629	-0.2522077	-1.1912366
O	5.0677832	-0.7788140	0.5821910
C	4.7549233	0.5519560	0.9831591
H	5.1323901	0.6985018	1.9992870
H	3.6711197	0.7105033	0.9925577
H	5.2425750	1.2806103	0.3265796
