40
0.00416648 (energy)
C	-0.3055117	0.5369350	-0.0927959
C	0.3130695	-0.6422325	0.0479129
H	-0.0948506	1.3592510	0.5824125
H	-1.0332416	0.7065926	-0.8822825
H	1.0381026	-0.8120843	0.8342838
C	0.0260119	-1.7634691	-0.8721698
O	-0.7625907	-1.7271423	-1.8014155
O	0.7880677	-2.8184180	-0.4906310
C	0.6407639	-4.0049075	-1.2838598
C	-0.5095172	-4.8449807	-0.7612952
H	1.5763962	-4.5668280	-1.1956921
H	0.5102336	-3.7620691	-2.3447938
H	-0.3636676	-5.0800679	0.2981326
H	-0.5929215	-5.7800921	-1.3222356
H	-1.4581425	-4.3045589	-0.8399185
C	1.7250959	1.1108476	4.7618706
H	1.6257974	-0.6887786	3.7091147
C	2.0795827	0.2990792	3.7564133
H	2.1007977	2.1242560	4.8559006
H	1.0184427	0.7741909	5.5142523
C	2.9859559	0.6279685	2.6693716
C	4.0317721	1.4669458	2.7923152
H	4.2482457	1.9060945	3.7615744
O	2.6408736	0.0327118	1.4693490
C	3.2722318	-1.2378842	1.3097333
H	3.0024620	-1.6244096	0.3224963
H	2.9170703	-1.9504001	2.0614922
H	4.3630156	-1.1557761	1.3563257
S	5.0746443	1.9066872	1.4740404
C	6.0358087	3.1703596	2.2839450
C	7.2757536	2.8564485	2.8489873
C	8.0304641	3.8464619	3.4817576
H	7.6622463	1.8414427	2.7994408
C	7.5509776	5.1541369	3.5477744
H	8.9937143	3.5975746	3.9196074
C	5.5634440	4.4854148	2.3462043
C	6.3188575	5.4745102	2.9792020
H	8.1401369	5.9250802	4.0381078
H	5.9471322	6.4949307	3.0246515
H	4.6063995	4.7475303	1.9011501
