40
0.000989187 (energy)
C	-0.3382079	0.3869900	-0.3551082
C	0.3405238	-0.4972275	0.3867545
H	-0.0266295	1.4246524	-0.4067195
H	-1.2166986	0.0954117	-0.9251080
H	1.2157520	-0.2074846	0.9550208
C	-0.0840239	-1.9117511	0.4575238
O	-1.0453102	-2.3879051	-0.1220597
O	0.7791523	-2.5632729	1.2758540
C	0.5195401	-3.9625676	1.4581820
C	-0.4681777	-4.1688538	2.5912322
H	1.4743526	-4.4346308	1.7120037
H	0.1676510	-4.4274832	0.5299487
H	-0.1018988	-3.7004246	3.5106554
H	-0.6277873	-5.2346560	2.7773346
H	-1.4329517	-3.7061122	2.3605617
C	6.6666406	1.4409677	-3.7821885
H	4.8617602	1.3520387	-4.8268454
C	5.3468858	1.2229319	-3.8614409
H	7.2299995	1.2940568	-2.8667465
H	7.2230829	1.7567427	-4.6593617
C	4.4874580	0.7702551	-2.7807893
C	4.6881029	1.0749183	-1.4847756
H	5.5148792	1.7250505	-1.2146921
O	3.4615705	-0.0546584	-3.2056882
C	2.2853554	0.6883963	-3.5264564
H	1.5021960	-0.0251730	-3.7990268
H	2.4580215	1.3464628	-4.3844161
H	1.9305194	1.2723953	-2.6710276
S	3.6948223	0.4789987	-0.1897556
C	4.6501655	1.0703925	1.1937990
C	4.3175917	2.2797531	1.8119562
C	5.0642328	2.7426961	2.8974624
H	3.4760472	2.8678178	1.4541143
C	6.1424425	1.9965462	3.3718079
H	4.8019169	3.6834422	3.3746366
C	5.7278258	0.3222409	1.6788682
C	6.4737409	0.7861057	2.7642647
H	6.7217109	2.3560416	4.2186256
H	7.3101780	0.2006873	3.1373083
H	5.9914858	-0.6259480	1.2161231
