40
0.00868584 (energy)
C	-0.3122367	-0.2078854	0.4995393
C	0.3091286	0.2942087	-0.5750231
H	0.0434053	-1.1164720	0.9733296
H	-1.1865102	0.2753429	0.9282584
H	1.1801136	-0.1867073	-1.0028159
C	-0.1754973	1.5326073	-1.2212681
O	-1.1398689	2.1847167	-0.8587052
O	0.6376991	1.7965008	-2.2740216
C	0.3154557	2.9779880	-3.0216277
C	-0.7099255	2.6567431	-4.0927665
H	1.2427237	3.3220719	-3.4914321
H	-0.0304698	3.7842054	-2.3644072
H	-0.3492462	1.8514719	-4.7411291
H	-0.9185492	3.5375562	-4.7065158
H	-1.6481489	2.3109827	-3.6474421
C	3.2902623	2.7779905	-3.3325191
H	3.7594499	4.0595131	-1.7531608
C	3.5710018	3.0287522	-2.0464875
H	3.0505889	1.7843270	-3.6960841
H	3.2735375	3.5864405	-4.0570212
C	3.5976313	2.0531900	-0.9699609
C	3.9524984	0.7647756	-1.1336287
H	4.2750023	0.4238338	-2.1128762
O	3.1703753	2.5637085	0.2425942
C	4.2553529	3.0961031	1.0027810
H	3.8579093	3.4291403	1.9660771
H	4.6988369	3.9624972	0.5011405
H	5.0234782	2.3399453	1.1949547
S	3.9215574	-0.4130211	0.1433368
C	4.2700076	-1.8758446	-0.8134184
C	5.5786824	-2.3595387	-0.9066224
C	5.8521783	-3.5068962	-1.6542075
H	6.3921970	-1.8481372	-0.3979666
C	4.8184231	-4.1773103	-2.3070281
H	6.8710994	-3.8790072	-1.7237868
C	3.2358441	-2.5569050	-1.4638316
C	3.5104465	-3.7039906	-2.2111158
H	5.0314469	-5.0720355	-2.8866630
H	2.7030142	-4.2295092	-2.7144908
H	2.2112240	-2.1997272	-1.3911031
