11
-0.00361155 (energy)
C	1.3308704	0.4157610	-0.2372423
H	1.6111766	1.1517205	-0.9814682
C	0.0766924	0.0228113	-0.0124432
H	-0.7390561	0.4445499	-0.5914637
H	-0.1741073	-0.7161604	0.7396226
O	2.4199089	-0.0550073	0.4369724
H	2.1221863	-0.7099726	1.0917798
C	4.9684213	1.9556067	0.9769680
H	4.6533770	1.9382162	-0.0785774
H	4.7312589	1.0502606	1.5582239
O	5.5438132	2.9170717	1.4711825
