18
-0.00147496 (energy)
C	-2.0279641	-0.2246989	-1.0720767
O	-1.6057484	-0.2328606	-2.2250495
H	-3.0766731	-0.5088424	-0.8745708
C	-1.2651717	0.2331515	0.1491215
Cl	0.4796876	-0.0690226	-0.0799611
H	-1.5797018	-0.3811949	0.9988754
C	-1.5169499	1.7205344	0.4146870
H	-1.2212153	2.3293195	-0.4482401
H	-0.9009889	2.0419519	1.2630252
N	-2.9175551	2.0253747	0.7442808
H	-3.4621532	2.1104183	-0.1168778
H	-2.9577367	2.9585056	1.1617405
O	2.1024874	4.7042907	0.6180319
H	2.8015496	4.9546217	1.2458106
C	2.4366975	3.4252349	0.1114620
H	1.6685378	3.1129072	-0.5998757
H	2.4822280	2.7071231	0.9338629
H	3.4026288	3.4747510	-0.3971199
