29
-0.00228123 (energy)
C	-1.2190591	-2.0483114	1.1163195
C	-1.5126042	-0.7464242	1.0076976
H	-1.8869652	-2.7273419	1.6352674
H	-0.3087510	-2.4633019	0.6911302
H	-2.4192492	-0.3321950	1.4311488
C	-0.6022935	0.1795390	0.3005538
O	0.4518639	-0.1346971	-0.2254871
O	-1.1502127	1.4190634	0.3513656
C	-0.3963677	2.4539269	-0.2962785
C	0.6261029	3.0352524	0.6621357
H	-1.1084539	3.2318371	-0.5907693
H	0.0775481	2.0875549	-1.2143008
H	0.1372935	3.3977157	1.5724164
H	1.1659109	3.8648636	0.1969516
H	1.3514124	2.2758478	0.9709370
C	8.6383026	-2.8814931	1.7469735
H	9.5505518	-3.2817630	2.1791769
H	7.9053320	-3.6003299	1.3997077
H	9.2471248	-0.9053096	2.0354212
C	8.4590152	-1.5584837	1.6620318
C	7.3103274	-0.8708406	1.1178091
C	6.2105388	-1.4253106	0.5967531
H	7.3682999	0.2163725	1.1452759
H	6.0564098	-2.4928399	0.5237295
O	5.1868560	-0.6529904	0.1117551
C	4.1087020	-1.4316215	-0.3990511
H	3.3379020	-0.7468018	-0.7642388
H	3.6708419	-2.0536744	0.3891015
H	4.4412865	-2.0536735	-1.2370705
