40
-0.00135297 (energy)
C	0.3306642	2.2160679	1.4925204
H	-0.3804683	2.7134744	-0.4058176
C	-0.0207857	1.9116111	0.2357935
H	0.7367736	1.4821667	2.1806005
H	0.2361861	3.2347705	1.8559669
C	0.0814984	0.6036831	-0.3888686
C	-0.0567971	-0.5585052	0.2766553
H	-0.2941144	-0.5379258	1.3361046
O	0.3886710	0.6627030	-1.7363211
C	-0.7876458	0.7059454	-2.5443516
H	-0.4746977	0.6946734	-3.5925649
H	-1.3514017	1.6280537	-2.3686942
H	-1.4288026	-0.1645550	-2.3715256
S	0.1295378	-2.1200839	-0.4619614
C	0.0466838	-3.1356683	1.0003567
C	-1.1640850	-3.7227260	1.3807232
C	-1.2293347	-4.5204126	2.5250795
H	-2.0625294	-3.5643104	0.7893094
C	-0.0841745	-4.7379999	3.2902876
H	-2.1728292	-4.9745423	2.8167856
C	1.1938974	-3.3638412	1.7673070
C	1.1275043	-4.1615486	2.9113788
H	-0.1348971	-5.3612968	4.1795667
H	2.0220813	-4.3357221	3.5037459
H	2.1453358	-2.9237614	1.4778134
C	5.2601446	5.8238015	-0.2895693
C	5.4854328	4.5074807	-0.1924992
H	5.4559392	6.4845414	0.5480316
H	4.8766154	6.2690789	-1.2040620
H	5.8673899	4.0630869	0.7182833
C	5.2184562	3.6064507	-1.3339870
O	4.7879159	3.9551292	-2.4201589
O	5.5333629	2.3448211	-0.9488341
C	5.3393099	1.3293899	-1.9437765
C	3.9107323	0.8201984	-1.9009567
H	6.0283278	0.5123971	-1.7056316
H	5.6053528	1.6935310	-2.9428821
H	3.6611761	0.4590803	-0.8978412
H	3.7681673	0.0045876	-2.6154481
H	3.2014159	1.6196825	-2.1372252
