29
-0.00198718 (energy)
C	-0.4793689	-2.5155420	-0.6083646
C	0.0619242	-1.4905613	-1.2786586
H	-0.5802479	-3.4912265	-1.0713456
H	-0.8324668	-2.4034914	0.4136091
H	0.4138122	-1.6013592	-2.2968925
C	0.1994098	-0.1603599	-0.6479543
O	-0.1496049	0.1203082	0.4861204
O	0.7718169	0.6708647	-1.5538427
C	0.9879485	2.0167545	-1.1060311
C	-0.2522848	2.8557773	-1.3505828
H	1.8239049	2.4174084	-1.6887739
H	1.2885855	2.0433417	-0.0522283
H	-0.5385049	2.8200772	-2.4068635
H	-0.0778552	3.8975192	-1.0670482
H	-1.1033913	2.4753473	-0.7769818
C	8.3199649	4.4455331	-2.2655304
H	9.0973297	5.0993723	-2.6494739
H	8.6452392	3.5540592	-1.7420451
H	6.7907408	5.6713137	-2.9853245
C	7.0311698	4.7549128	-2.4472017
C	5.8846815	3.9962292	-2.0016920
C	5.8942556	2.8430473	-1.3245282
H	4.9182940	4.4293186	-2.2560075
H	6.7992519	2.3331192	-1.0250920
O	4.7269098	2.2230577	-0.9604614
C	4.9509000	1.0098406	-0.2480442
H	3.9776304	0.5793552	0.0047430
H	5.4950317	1.2006813	0.6832754
H	5.4950310	0.2895022	-0.8684247
