31
-0.00256665 (energy)
C	2.1622956	2.3099876	-0.1191132
O	2.1993751	2.6398200	1.0686066
O	1.6713549	3.1444662	-1.1011399
H	1.3308684	3.9738946	-0.7006533
N	1.8145251	0.3775372	-1.6707792
C	0.0325945	-0.0023280	-0.0752659
H	0.5705469	0.4137707	0.7667962
H	-0.9586438	-0.3860519	0.1293817
C	-0.2796848	-0.6542189	-2.4651007
H	0.1970830	-1.5487565	-2.8866347
H	-1.2689860	-0.9414089	-2.1033663
H	-0.4131625	0.0636238	-3.2841451
C	3.8961265	0.4155696	-2.7546528
C	2.3829999	0.4205583	-3.0276523
C	2.6975480	1.0004010	-0.6875434
C	4.0323605	1.2529882	-1.4630184
H	4.2369449	-0.6117448	-2.5825703
H	4.4757500	0.8339769	-3.5830351
H	2.0661621	-0.4448670	-3.6141012
H	2.0821125	1.3317366	-3.5688619
H	2.8441976	0.3385277	0.1745902
H	4.1227205	2.3149615	-1.7136469
H	4.9007816	0.9739560	-0.8611011
C	0.5331943	-0.0659485	-1.3324161
C	6.2138104	3.7318696	2.1664953
H	5.8365950	4.2130608	3.0888544
O	7.1306820	4.2562929	1.5243592
C	5.5387423	2.4436199	1.7873200
H	4.4623078	2.6088392	1.6457637
H	5.9720952	2.0406625	0.8694925
H	5.6428430	1.7100079	2.5977458
