18
-0.00174726 (energy)
C	1.7829879	0.7149625	-1.7024097
O	2.6442513	-0.1019580	-2.0163287
H	2.0763038	1.7554614	-1.4768782
C	0.3149079	0.4223851	-1.4976080
Cl	-0.1853875	-0.9271004	-2.5544501
H	-0.2564765	1.2991691	-1.8188587
C	0.0334208	0.0818324	-0.0309744
H	0.6251663	-0.7831314	0.2921303
H	-1.0231025	-0.1912330	0.0766762
N	0.2975155	1.1990768	0.8884132
H	1.2948554	1.2318355	1.1112437
H	-0.1548189	0.9974709	1.7836055
O	3.4050425	-1.9312921	-6.6621436
H	4.3660714	-1.7848188	-6.6414373
C	2.9740042	-2.0550828	-5.3193201
H	1.8942556	-2.2212145	-5.3065698
H	3.2055091	-1.1361504	-4.7751972
H	3.4767470	-2.9049243	-4.8511860
