40
0.000170827 (energy)
C	1.6400630	-3.0314439	-0.8562265
C	1.3623390	-1.7554844	-0.5601278
H	2.6551347	-3.3421974	-1.0788242
H	0.8629304	-3.7910614	-0.8828718
H	2.1359951	-0.9980877	-0.5335142
C	-0.0212626	-1.3314636	-0.2568473
O	-0.9959324	-2.0640283	-0.2479637
O	0.0000000	0.0000000	0.0000000
C	-1.2691571	0.5865758	0.3222369
C	-1.9924257	0.9997488	-0.9458774
H	-1.0663952	1.4711408	0.9349100
H	-1.8798476	-0.0918807	0.9291501
H	-1.3705605	1.6776925	-1.5396798
H	-2.9348200	1.5015122	-0.7088748
H	-2.2079203	0.1310980	-1.5760640
C	6.5913615	0.0942253	4.5448426
H	6.4329778	-1.9233818	4.0339749
C	6.1750181	-0.9040617	3.7538594
H	6.3408731	1.1329432	4.3569310
H	7.1861371	-0.1185355	5.4278768
C	5.3515606	-0.7675018	2.5644858
C	5.3870527	0.3009171	1.7459805
H	6.0910909	1.1020934	1.9499964
O	4.4806553	-1.8256835	2.3767572
C	5.0651189	-2.8549166	1.5782674
H	4.3082092	-3.6294892	1.4235438
H	5.9185759	-3.3121557	2.0896415
H	5.3728691	-2.4793697	0.5969539
S	4.3552121	0.4883765	0.3607126
C	4.7747836	2.1638441	-0.0790814
C	5.7396043	2.4123913	-1.0602143
C	6.0672876	3.7248327	-1.4069623
H	6.2407319	1.5876775	-1.5610001
C	5.4286647	4.7929627	-0.7780438
H	6.8180207	3.9130213	-2.1701745
C	4.1317385	3.2390729	0.5428115
C	4.4602072	4.5509596	0.1953821
H	5.6821646	5.8144890	-1.0502771
H	3.9573346	5.3828901	0.6817092
H	3.3708537	3.0617226	1.2993252
