31
-0.00346494 (energy)
C	-3.4497840	0.7137225	0.7300319
O	-4.3757075	0.7696651	1.5426688
O	-3.6241190	0.2456731	-0.5553827
H	-4.5477866	-0.0634534	-0.6800867
N	-0.9952995	0.2896812	0.4878112
C	-1.6107744	-1.4941787	2.0057939
H	-2.4029661	-0.9368789	2.4889592
H	-1.4344787	-2.4967544	2.3738153
C	0.2347798	-1.8438602	0.3609708
H	1.2287946	-1.4009159	0.5056464
H	0.2443122	-2.8401765	0.8074119
H	0.0800343	-1.9576614	-0.7193307
C	-0.3652210	2.3644652	-0.4108353
C	-0.2685243	0.8507170	-0.6624738
C	-2.0265321	1.1998657	0.9803198
C	-1.7690215	2.5376723	0.2116537
H	0.4096885	2.6707130	0.3011141
H	-0.2416291	2.9529351	-1.3249871
H	0.7659910	0.5005066	-0.6824788
H	-0.7426202	0.5780358	-1.6188028
H	-1.9417599	1.3290342	2.0661310
H	-2.5158658	2.6630372	-0.5790890
H	-1.8380314	3.3997341	0.8797897
C	-0.8518016	-1.0040258	0.9964452
C	4.1608503	0.3067995	-0.2641120
H	3.9597866	1.0992950	-1.0098379
O	3.2216935	-0.2785323	0.2866905
C	5.6127210	0.0236612	0.0023130
H	6.1158423	0.9330823	0.3570932
H	5.7173942	-0.7680916	0.7471268
H	6.1159087	-0.2748471	-0.9269385
