31
-0.00243129 (energy)
C	1.6015916	-2.1295201	-2.4173134
O	2.4108480	-2.2748350	-3.3364599
O	0.3658538	-2.7416493	-2.4192053
H	0.2364855	-3.2391951	-3.2558558
N	0.7242145	-0.4973444	-0.7352945
C	0.8470436	0.9091268	-2.7030315
H	1.7018924	0.3998251	-3.1289948
H	0.4594151	1.7498122	-3.2639862
C	-0.9356549	1.3069587	-1.0008251
H	-0.7187260	1.7916512	-0.0399864
H	-1.2312026	2.0841746	-1.7083799
H	-1.7958089	0.6433019	-0.8470619
C	1.2502422	-1.6864995	1.2188032
C	0.0853770	-0.9910160	0.4952721
C	1.8510049	-1.3343274	-1.1405650
C	2.0732633	-2.3046095	0.0660997
H	1.8466415	-0.9422638	1.7587713
H	0.9116532	-2.4396667	1.9366764
H	-0.3310476	-0.1673205	1.0795544
H	-0.7263711	-1.7033485	0.2777075
H	2.7371939	-0.7196964	-1.3399505
H	1.6857687	-3.2989284	-0.1787365
H	3.1349972	-2.4062006	0.3042573
C	0.2640678	0.5537955	-1.5330087
C	5.2085081	-2.0973824	-1.8698203
H	5.2345069	-2.7954544	-1.0115649
O	5.0004243	-0.8932716	-1.6831909
C	5.4388629	-2.7215741	-3.2175589
H	4.6828967	-3.4946201	-3.4098136
H	5.3963440	-1.9633451	-4.0023248
H	6.4162363	-3.2216255	-3.2399937
