31
-0.00389737 (energy)
C	-3.5899161	-0.0035519	-0.2363174
O	-4.6852113	-0.3508157	0.2115427
O	-3.3140564	0.0023860	-1.5874725
H	-4.0813868	-0.3474264	-2.0905702
N	-1.1267687	-0.0226064	0.2058571
C	-1.7106664	-2.2903981	0.8234504
H	-2.7041940	-2.0396520	1.1722034
H	-1.4210126	-3.3302816	0.9035809
C	0.5314115	-1.8099141	-0.1644830
H	1.3301948	-1.3350456	0.4200179
H	0.6424368	-2.8915665	-0.0657503
H	0.6940591	-1.5468909	-1.2172474
C	-0.7553746	2.2948042	0.2369607
C	-0.2657874	0.9937690	-0.4200912
C	-2.4249498	0.5237585	0.5939972
C	-2.2756883	2.0683161	0.3966435
H	-0.2810580	2.4144196	1.2177055
H	-0.5290990	3.1815429	-0.3628217
H	0.7885728	0.7974956	-0.2125563
H	-0.4007831	1.0278834	-1.5129313
H	-2.6581726	0.2648152	1.6339070
H	-2.7978767	2.3800385	-0.5138044
H	-2.7051110	2.6198141	1.2367416
C	-0.8407716	-1.3863546	0.3125073
C	4.1559834	0.0581048	-0.7347736
H	4.3487666	-0.9673438	-0.3661646
O	3.0531594	0.5854907	-0.5513192
C	5.3057109	0.7163070	-1.4446852
H	5.6076998	0.1149391	-2.3125597
H	5.0282597	1.7203767	-1.7724680
H	6.1776080	0.7729014	-0.7795493
