31
-0.00104935 (energy)
C	2.8935571	-0.6579153	-2.0341658
O	3.5384289	-1.4284387	-2.7492019
O	3.4970594	0.1743526	-1.1149982
H	4.4656561	0.0136686	-1.0984700
N	0.7437825	-0.3824958	-0.7829308
C	1.3165993	-2.6607000	-0.1939458
H	1.8119052	-2.8781293	-1.1314937
H	1.2749255	-3.4675585	0.5264157
C	0.0901697	-1.2258188	1.4403054
H	-0.9791837	-1.0052031	1.3262526
H	0.1832799	-2.1156466	2.0660719
H	0.5436434	-0.3838309	1.9782331
C	-0.0689835	1.5201609	-1.8913539
C	0.2388732	0.9684778	-0.4895780
C	1.3836850	-0.4547104	-2.0943236
C	1.0489848	0.9155919	-2.7704399
H	-1.0510203	1.1626754	-2.2214330
H	-0.0749847	2.6138899	-1.9224353
H	-0.6510194	0.9267535	0.1425768
H	0.9948863	1.5861578	0.0209147
H	0.9911426	-1.3016807	-2.6700046
H	1.9304046	1.5648813	-2.7534300
H	0.7492585	0.7819138	-3.8128472
C	0.7600919	-1.4621688	0.1042097
C	3.8344605	-6.1320002	2.4763396
H	4.0872269	-6.5092514	1.4671946
O	3.6805535	-6.9235197	3.4132609
C	3.7025437	-4.6393934	2.5938176
H	2.9241771	-4.2742038	1.9105688
H	3.4530993	-4.3571628	3.6188542
H	4.6404076	-4.1527583	2.2948012
