40
-0.00158071 (energy)
C	1.8440874	5.8295642	-1.1565208
H	1.2874932	6.3244098	-3.1064286
C	1.4374601	5.5156123	-2.3941240
H	2.0552908	5.0791260	-0.4020504
H	1.9974565	6.8675096	-0.8773759
C	1.2231342	4.1744350	-2.9105041
C	0.8023787	3.1395078	-2.1590922
H	0.5702292	3.3047808	-1.1112528
O	1.5442639	4.0453120	-4.2497836
C	0.4189838	4.3040244	-5.0896151
H	0.7266849	4.1304200	-6.1249875
H	0.0949061	5.3462958	-5.0024149
H	-0.4155021	3.6315934	-4.8655799
S	0.6087316	1.5233219	-2.7667493
C	0.2721407	0.6829807	-1.2314370
C	-1.0474156	0.4394006	-0.8380971
C	-1.3119291	-0.2209506	0.3636024
H	-1.8765968	0.7603688	-1.4638016
C	-0.2589323	-0.6442614	1.1737166
H	-2.3393556	-0.4079255	0.6651706
C	1.3245474	0.2490843	-0.4186953
C	1.0589215	-0.4110346	0.7826920
H	-0.4653315	-1.1607177	2.1078265
H	1.8805180	-0.7462249	1.4104896
H	2.3562531	0.4207408	-0.7167374
C	4.8092164	-1.8245153	3.9641751
C	5.7930208	-2.3873754	3.2512971
H	4.8341617	-1.8318660	5.0485236
H	3.9603294	-1.3458022	3.4826273
H	6.6390040	-2.8646183	3.7303103
C	5.7592589	-2.3777395	1.7731586
O	4.8770145	-1.8826689	1.0925258
O	6.8711061	-3.0146233	1.3288693
C	7.0074885	-3.0956219	-0.0971414
C	6.2834058	-4.3204232	-0.6239330
H	8.0778480	-3.1803989	-0.3118021
H	6.6532745	-2.1799306	-0.5846161
H	6.6491732	-5.2259186	-0.1287387
H	6.4306768	-4.4239064	-1.7026574
H	5.2093217	-4.2588919	-0.4222288
