31
-0.000934234 (energy)
C	-1.8512934	0.8906362	1.0931160
O	-2.6065623	0.8403273	2.0667075
O	-2.0353211	1.7885405	0.0627494
H	-2.8538728	2.3102457	0.2113054
N	-0.4373186	-0.4901237	-0.4421865
C	-2.4261140	-1.8654193	-0.3062025
H	-2.6690233	-1.5787414	0.7088888
H	-3.0901175	-2.5794162	-0.7762937
C	-1.0836849	-1.8269648	-2.4110056
H	-0.1271014	-2.3589376	-2.4955571
H	-1.8724281	-2.5008182	-2.7513766
H	-1.0465739	-0.9731514	-3.0991726
C	1.6392887	0.5147176	-0.0094173
C	0.6880113	0.1345536	-1.1560002
C	-0.5950438	0.0468667	0.9073340
C	0.6820618	0.9213275	1.1336200
H	2.2341382	-0.3584909	0.2817961
H	2.3265964	1.3215236	-0.2812951
H	1.1460234	-0.5663424	-1.8575978
H	0.3710191	1.0269957	-1.7188058
H	-0.6698632	-0.7654388	1.6404225
H	0.4271357	1.9826840	1.0481684
H	1.1063460	0.7558221	2.1270531
C	-1.3580053	-1.3880256	-0.9890740
C	-2.0228819	5.3214715	1.8963235
H	-1.8300984	5.8625477	2.8421850
O	-3.1257059	5.4105592	1.3450934
C	-0.8731544	4.5080494	1.3713955
H	-0.5711653	3.7577863	2.1143320
H	-1.1506057	4.0108915	0.4394988
H	-0.0012573	5.1532530	1.2001611
