31
8.43937e-05 (energy)
C	-0.1001327	-0.9167174	-2.1365920
O	-0.7535908	-1.0721041	-3.1708502
O	1.1410622	-1.4897692	-1.9554824
H	1.3707187	-2.0499079	-2.7286413
N	-0.2762162	-0.6563956	0.3461894
C	-1.8614721	-2.4481798	-0.0302542
H	-2.1589892	-2.1051419	-1.0128060
H	-2.3542458	-3.3389011	0.3378052
C	-0.5591519	-2.3683292	2.0984488
H	-0.8051123	-1.6591698	2.8995683
H	-1.1032240	-3.2947049	2.2930261
H	0.5143391	-2.5841519	2.1690611
C	0.7282829	1.4549565	0.5522644
C	0.8034474	0.0154134	1.0872145
C	-0.5101320	-0.0407700	-0.9579310
C	0.3460110	1.2681617	-0.9333752
H	-0.0565493	2.0057020	1.0831713
H	1.6696057	1.9995964	0.6727804
H	0.6306777	-0.0344596	2.1646804
H	1.7866658	-0.4340773	0.8752548
H	-1.5768896	0.1706929	-1.0999465
H	1.2490178	1.1344286	-1.5379090
H	-0.2106376	2.1150659	-1.3422933
C	-0.9325944	-1.8270873	0.7355817
C	5.2259744	-3.3679527	-2.4118992
H	5.3800722	-2.9487522	-3.4243752
O	5.6559796	-4.4933264	-2.1350572
C	4.4809039	-2.4826929	-1.4525957
H	3.4877292	-2.2418545	-1.8546501
H	4.3751928	-2.9735128	-0.4828031
H	5.0119591	-1.5296572	-1.3280299
