29
-0.00362591 (energy)
C	-0.9077631	-0.8445161	-2.3217692
C	-1.3174286	-1.0038557	-1.0569915
H	-1.4522307	-1.2968542	-3.1436168
H	-0.0229777	-0.2611388	-2.5636152
H	-2.1987310	-1.5850235	-0.8152236
C	-0.5753790	-0.3875823	0.0635867
O	0.4316716	0.2907792	-0.0477052
O	-1.2129368	-0.7173700	1.2142292
C	-0.6276341	-0.1948880	2.4155206
C	0.4495837	-1.1340911	2.9248756
H	-1.4305875	-0.1199129	3.1561828
H	-0.2367098	0.8175450	2.2614187
H	0.0433276	-2.1397526	3.0749628
H	0.8612990	-0.7746085	3.8721383
H	1.2657961	-1.2250769	2.2012415
C	7.7251996	-3.1234313	3.3748533
H	8.4995211	-3.6301382	3.9430862
H	8.0492004	-2.3489034	2.6895097
H	6.2019623	-4.2537591	4.2473640
C	6.4414499	-3.4632479	3.5367934
C	5.2994500	-2.8900551	2.8616630
C	5.3089865	-1.9129856	1.9485828
H	4.3368458	-3.3151539	3.1424327
H	6.2104399	-1.4265292	1.6029689
O	4.1462107	-1.4584958	1.3819972
C	4.3693240	-0.4176395	0.4351898
H	3.3998646	-0.1118963	0.0312809
H	4.9908604	-0.7729136	-0.3938630
H	4.8317907	0.4517284	0.9149414
