29
-0.00189045 (energy)
C	-0.2305586	2.2616266	-1.3265526
C	0.4554315	1.8966866	-0.2360875
H	-0.1740707	3.2765490	-1.7050094
H	-0.8613891	1.5577210	-1.8634265
H	1.0840135	2.5974164	0.2994163
C	0.3785148	0.5133463	0.2802257
O	-0.2839765	-0.3851322	-0.2102361
O	1.1654929	0.4376904	1.3821149
C	1.2154841	-0.8477579	2.0175605
C	0.0769939	-0.9857328	3.0109115
H	2.1731578	-0.9067605	2.5451170
H	1.2042748	-1.6584043	1.2797825
H	0.1029319	-0.1702582	3.7411539
H	0.1404206	-1.9387963	3.5435378
H	-0.8930657	-0.9310623	2.5068056
C	7.6104546	0.3173547	6.7549053
H	8.1072983	0.4502636	7.7113026
H	8.2201365	0.4348773	5.8666248
H	5.7667701	-0.0775859	7.6515754
C	6.3062101	0.0229628	6.7102639
C	5.5025331	-0.1839830	5.5271360
C	5.9091193	-0.1206402	4.2546792
H	4.4552074	-0.4154156	5.7160686
H	6.9258990	0.1016353	3.9623443
O	5.0382309	-0.3394543	3.2186764
C	5.6647570	-0.2266786	1.9441756
H	4.9088516	-0.4137065	1.1759956
H	6.4590918	-0.9728469	1.8340812
H	6.0642461	0.7823204	1.7952889
