29
-0.00300214 (energy)
C	-2.5797453	-0.4998222	0.1514780
C	-1.8180890	0.5404371	0.5128891
H	-3.6519077	-0.4872025	0.3151749
H	-2.1511681	-1.3837300	-0.3140241
H	-2.2442983	1.4213474	0.9768337
C	-0.3565129	0.5235116	0.2901008
O	0.2674698	-0.3927586	-0.2176448
O	0.1469315	1.6949339	0.7521957
C	1.5657470	1.8552062	0.6109762
C	2.2823206	1.2543829	1.8057468
H	1.7632435	2.9312899	0.5665350
H	1.9244563	1.4232624	-0.3304811
H	1.9142080	1.6967900	2.7372479
H	3.3605910	1.4234541	1.7365241
H	2.1010968	0.1769052	1.8715272
C	5.7313036	0.8230550	-5.2831937
H	6.0336400	1.2038832	-6.2541607
H	5.3065939	-0.1737533	-5.2595114
H	6.3250381	2.5667059	-4.3001736
C	5.8892999	1.5744136	-4.1876525
C	5.5406879	1.2168063	-2.8315177
C	4.9950049	0.0691349	-2.4149224
H	5.7543067	1.9797716	-2.0842571
H	4.7455856	-0.7489159	-3.0762013
O	4.7122003	-0.1436470	-1.0903948
C	4.1361798	-1.4248198	-0.8529036
H	3.9412838	-1.5164580	0.2195192
H	4.8274173	-2.2222841	-1.1463270
H	3.1846183	-1.5280209	-1.3855554
