29
-0.00168183 (energy)
C	0.5625147	2.5309561	-0.4535329
C	-0.5572381	1.8028227	-0.5476234
H	0.5608022	3.5875247	-0.6987838
H	1.5021451	2.0898065	-0.1308174
H	-1.4937222	2.2415639	-0.8691906
C	-0.5552463	0.3624927	-0.2135999
O	0.4165672	-0.2719561	0.1602509
O	-1.8128623	-0.1086557	-0.4023833
C	-1.9986698	-1.5026750	-0.1180363
C	-1.6690220	-2.3355993	-1.3425822
H	-3.0527820	-1.6375993	0.1457419
H	-1.4073026	-1.8151533	0.7504290
H	-2.2683499	-2.0124655	-2.2000878
H	-1.8639383	-3.3952160	-1.1547952
H	-0.6183125	-2.2185036	-1.6261762
C	5.0992463	0.9103899	-4.4549219
H	5.3616025	1.2711136	-5.4450037
H	5.1249207	-0.1623213	-4.3026152
H	4.7644793	2.8391078	-3.7288736
C	4.7648710	1.7757968	-3.4910873
C	4.3927814	1.4597519	-2.1308741
C	4.3121850	0.2445640	-1.5783402
H	4.1565716	2.3198847	-1.5059548
H	4.5258563	-0.6705265	-2.1128128
O	3.9443345	0.0829347	-0.2675428
C	3.9187498	-1.2852250	0.1288030
H	3.6182951	-1.3292083	1.1796433
H	4.9130062	-1.7354703	0.0361253
H	3.1874851	-1.8474833	-0.4619214
