29
-0.000791207 (energy)
C	2.1498572	-0.5150335	-1.4285337
C	1.2674764	-1.2839713	-0.7781365
H	2.9824707	-0.9566105	-1.9654252
H	2.0607354	0.5682982	-1.4391842
H	1.3556602	-2.3633230	-0.7669398
C	0.1324954	-0.6823888	-0.0459873
O	-0.0994031	0.5119545	0.0345015
O	-0.5834322	-1.6909915	0.5102377
C	-1.7368829	-1.2872798	1.2620594
C	-1.3467193	-0.9807679	2.6958537
H	-2.4404210	-2.1261054	1.2435718
H	-2.2408387	-0.4344749	0.7926533
H	-0.8463376	-1.8419896	3.1506511
H	-2.2281804	-0.7290474	3.2922654
H	-0.6433695	-0.1432883	2.7411789
C	7.5578688	3.0351147	-0.1471474
H	7.7505454	4.0996171	-0.0526769
H	8.4229424	2.3848202	-0.2048591
H	5.4874691	3.3035274	-0.1233257
C	6.3002470	2.5807203	-0.1874725
C	5.8776302	1.2041356	-0.3096390
C	6.6618783	0.1251285	-0.4053972
H	4.7992111	1.0525483	-0.3230912
H	7.7420505	0.1689456	-0.4015092
O	6.1288952	-1.1330801	-0.5170582
C	7.1281393	-2.1445439	-0.6068224
H	6.6255736	-3.1122859	-0.6927055
H	7.7494218	-2.1583802	0.2952155
H	7.7494209	-1.9993109	-1.4971899
