29
-0.00348559 (energy)
C	0.2936189	-0.4833909	-2.5705982
C	-0.7666999	-0.4433881	-1.7538966
H	0.1751668	-0.7101118	-3.6246640
H	1.2995875	-0.2914270	-2.2061249
H	-1.7692164	-0.6346564	-2.1162211
C	-0.6056026	-0.1345781	-0.3169520
O	0.4543465	0.1009657	0.2377896
O	-1.8351169	-0.1667297	0.2544314
C	-1.8697886	0.1177679	1.6603214
C	-1.6360753	-1.1517246	2.4576358
H	-2.8664419	0.5132478	1.8821628
H	-1.1474736	0.8977670	1.9276267
H	-2.3656910	-1.9196661	2.1804136
H	-1.7191625	-0.9566564	3.5305238
H	-0.6439250	-1.5666872	2.2537456
C	2.6968178	1.2118118	6.8183393
H	2.4779188	1.3965084	7.8658052
H	1.8480605	1.0947851	6.1546515
H	4.7599648	1.2674328	7.1337736
C	3.9652775	1.1379921	6.3996823
C	4.4217519	0.8998885	5.0493295
C	3.6643798	0.7084917	3.9638684
H	5.5035874	0.8780760	4.9256208
H	2.5834525	0.7115147	3.9810168
O	4.2282647	0.4914898	2.7331889
C	3.2542940	0.3109461	1.7092794
H	3.7805996	0.1444363	0.7649545
H	2.6315773	1.2058036	1.6029319
H	2.6315785	-0.5663087	1.9154035
