29
-0.00279632 (energy)
C	-0.0802029	1.5536994	2.1230731
C	0.0030519	0.2283638	1.9515163
H	-0.0992624	1.9853348	3.1179679
H	-0.1310408	2.2344350	1.2770954
H	0.0535975	-0.4504992	2.7938298
C	0.0288437	-0.3604004	0.5954863
O	-0.0216397	0.2703863	-0.4467568
O	0.1134523	-1.7072569	0.7297879
C	0.1549705	-2.4483737	-0.4980924
C	-1.2531748	-2.7402569	-0.9816979
H	0.6736552	-3.3891837	-0.2864826
H	0.7403091	-1.9231421	-1.2617023
H	-1.8238557	-3.2658341	-0.2090290
H	-1.2330355	-3.3554780	-1.8856565
H	-1.7930427	-1.8137893	-1.2015340
C	2.0064974	7.0561923	-2.6916221
H	1.8180062	7.9665233	-3.2528555
H	2.0961519	6.1394094	-3.2626186
H	2.0139354	8.0633778	-0.8627728
C	2.1174457	7.0989595	-1.3591152
C	2.3656965	5.9854006	-0.4720566
C	2.5313467	4.7031799	-0.8140232
H	2.4198002	6.2414681	0.5851330
H	2.4957744	4.3471485	-1.8341621
O	2.7620553	3.7392194	0.1331735
C	2.9104859	2.4403448	-0.4329525
H	3.0903364	1.7329143	0.3817061
H	3.7691063	2.4081923	-1.1123588
H	1.9969940	2.1375849	-0.9561224
