29
-0.00253294 (energy)
C	0.2058554	-2.3854279	1.0932570
C	-0.6722326	-1.8293833	0.2490690
H	0.0892501	-3.4133716	1.4191758
H	1.0573073	-1.8286046	1.4761947
H	-1.5208395	-2.3834273	-0.1327731
C	-0.5137315	-0.4281080	-0.1952632
O	0.3854213	0.3211832	0.1464940
O	-1.5397239	-0.1405994	-1.0342485
C	-1.5431147	1.1897913	-1.5715723
C	-2.2566924	2.1357017	-0.6239417
H	-2.0810095	1.1485596	-2.5244128
H	-0.5258689	1.5341398	-1.7911736
H	-3.2707912	1.7789761	-0.4159134
H	-2.3166130	3.1406146	-1.0512629
H	-1.7365838	2.1952204	0.3373449
C	2.3762176	5.7990230	4.9503885
H	2.1972601	6.4677464	5.7870471
H	2.4038731	4.7380223	5.1696565
H	2.5071793	7.3744715	3.5865780
C	2.5502802	6.2939243	3.7197431
C	2.7961167	5.5443085	2.5088941
C	2.8961130	4.2161323	2.3888114
H	2.9089362	6.1468466	1.6086901
H	2.7996444	3.5317781	3.2201117
O	3.1330007	3.6283802	1.1730566
C	3.2047919	2.2080118	1.2567542
H	3.3946895	1.8174423	0.2528283
H	2.2570461	1.7912623	1.6144601
H	4.0291585	1.8981344	1.9080863
