29
-0.00228523 (energy)
C	-0.1755611	0.1418156	0.5825069
C	0.2587672	-0.1984797	-0.6375077
H	-1.0765484	0.7327517	0.7070238
H	0.3569371	-0.1609339	1.4805337
H	-0.2711092	0.1028724	-1.5326724
C	1.4870179	-1.0038233	-0.8076490
O	2.1900248	-1.4154647	0.0995686
O	1.6801670	-1.1896059	-2.1370836
C	2.8361206	-1.9625887	-2.4905469
C	4.0545073	-1.0646444	-2.5962510
H	2.6300982	-2.4192052	-3.4641957
H	3.0015745	-2.7808550	-1.7801562
H	3.8740044	-0.2541002	-3.3099471
H	4.9290082	-1.6344204	-2.9228199
H	4.2821835	-0.5963727	-1.6334361
C	5.5989597	-2.1636221	3.4492183
H	5.0576230	-2.9954263	3.8899800
H	6.6131527	-2.0018574	3.7953550
H	3.9887670	-1.6265324	2.2334955
C	5.0125930	-1.3943005	2.5250802
C	5.5920026	-0.2575019	1.8464873
C	6.8219661	0.2403974	2.0130925
H	4.9381606	0.2313634	1.1256205
H	7.5453984	-0.1717490	2.7026490
O	7.2495191	1.3311465	1.3009881
C	8.5861559	1.7048015	1.6225304
H	8.8505866	2.5763889	1.0168204
H	9.2842865	0.8952294	1.3836530
H	8.6688378	1.9821384	2.6789800
