29
-0.0017327 (energy)
C	4.6301539	-0.1246241	-2.1551983
C	3.5385083	0.5422382	-1.7596202
H	5.3213393	0.3131072	-2.8673375
H	4.8569323	-1.1186531	-1.7781814
H	3.3118093	1.5325372	-2.1348766
C	2.5959794	-0.0542134	-0.7890479
O	2.7132258	-1.1560009	-0.2800992
O	1.5956848	0.8375568	-0.5807818
C	0.5828316	0.4230801	0.3471218
C	-0.4886278	-0.3769539	-0.3697210
H	0.1427170	1.3331524	0.7678398
H	1.0134950	-0.1415920	1.1821452
H	-0.9094485	0.2007491	-1.1992356
H	-1.2954274	-0.6474268	0.3172743
H	-0.0730045	-1.2940999	-0.7989387
C	3.5302980	-1.8177027	3.2263133
H	3.3904828	-1.0890562	2.4333818
H	3.7059524	-1.4286913	4.2224968
H	3.3004703	-3.4324663	1.9229003
C	3.4820519	-3.1263357	2.9526988
C	3.6469298	-4.2158193	3.8877688
C	3.8785963	-4.1229991	5.2016128
H	3.5703344	-5.2116027	3.4533771
H	3.9712988	-3.1829397	5.7273519
O	4.0158246	-5.2433141	5.9798741
C	4.2572390	-4.9321590	7.3490005
H	4.3542819	-5.8724573	7.8993591
H	3.4185056	-4.3699669	7.7736440
H	5.1906178	-4.3699675	7.4611723
