29
-0.00172826 (energy)
C	3.3003439	0.1353996	-1.3045992
C	2.1823723	0.3561399	-0.6015411
H	4.1951502	0.7213477	-1.1243921
H	3.3466343	-0.6323263	-2.0727904
H	2.1354179	1.1209079	0.1638523
C	0.9623605	-0.4422468	-0.8470526
O	0.8589553	-1.3338773	-1.6722880
O	0.0000000	0.0000000	0.0000000
C	-1.2637157	-0.6725586	-0.0967222
C	-2.1226756	-0.0225622	-1.1651958
H	-1.7530789	-0.5756360	0.8779909
H	-1.1320393	-1.7443281	-0.2852987
H	-2.2458066	1.0462927	-0.9619390
H	-3.1104188	-0.4902340	-1.2063069
H	-1.6545974	-0.1074100	-2.1510107
C	-4.5771099	6.2691193	2.1780751
H	-5.3398363	7.0419472	2.1922149
H	-3.6298848	6.5252785	1.7179523
H	-5.8071314	4.8937471	3.1550942
C	-4.8271329	5.0682353	2.7120031
C	-3.9257392	3.9403015	2.7734016
C	-2.6729181	3.8828238	2.3090671
H	-4.3318087	3.0514356	3.2542056
H	-2.1792191	4.7092029	1.8170651
O	-1.9208831	2.7431681	2.4325831
C	-0.6171572	2.8849868	1.8759936
H	-0.0840953	1.9397901	2.0135470
H	-0.0580763	3.6734314	2.3913957
H	-0.6735251	3.0950987	0.8024419
