29
-0.0015332 (energy)
C	0.5885933	-2.6601337	-2.2781196
C	0.0577547	-1.8449598	-1.3580220
H	0.0690837	-3.5598733	-2.5896747
H	1.5500405	-2.4479423	-2.7388338
H	-0.8999918	-2.0557410	-0.8984627
C	0.7657238	-0.6185044	-0.9329188
O	1.8476891	-0.2480192	-1.3557698
O	0.0000000	0.0000000	0.0000000
C	0.5354842	1.2229370	0.5256894
C	1.4544897	0.9315822	1.6972202
H	-0.3142003	1.8242582	0.8653732
H	1.0481285	1.8009896	-0.2518971
H	0.9277578	0.3554931	2.4650745
H	1.8215775	1.8605604	2.1425175
H	2.3140770	0.3314307	1.3824897
C	-6.6016672	-3.9813422	4.5010869
H	-7.4133438	-4.5339548	4.9647840
H	-5.5936512	-4.2862905	4.7569697
H	-7.9106293	-2.7353050	3.4555357
C	-6.8677364	-2.9770003	3.6583429
C	-5.9084933	-2.1489748	2.9635469
C	-4.5752687	-2.2292562	3.0309118
H	-6.3406236	-1.3831565	2.3209481
H	-4.0498850	-2.9530275	3.6382289
O	-3.7749698	-1.3765179	2.3153790
C	-2.3875735	-1.6244330	2.5234055
H	-1.8203009	-0.9079974	1.9222444
H	-2.1200867	-2.6352903	2.1971019
H	-2.1200875	-1.4786255	3.5755600
