29
-0.00146923 (energy)
C	0.2657648	1.9211068	-1.7794862
C	-0.7656400	1.4709016	-1.0539540
H	0.1406933	2.7481953	-2.4699715
H	1.2540776	1.4754122	-1.7003801
H	-1.7506022	1.9143121	-1.1323021
C	-0.5955853	0.3433430	-0.1127745
O	0.4468311	-0.2575892	0.0846078
O	-1.7957153	0.1078126	0.4732556
C	-1.8159680	-0.9612499	1.4300016
C	-2.0712984	-2.2840405	0.7321661
H	-2.6324840	-0.7501242	2.1283306
H	-0.8903670	-0.9895196	2.0165622
H	-2.9991095	-2.2400758	0.1523739
H	-2.1473912	-3.0976131	1.4590452
H	-1.2666422	-2.5185993	0.0281505
C	4.0260180	-1.7947874	1.0864380
H	3.8865431	-0.9381034	0.4338634
H	4.9891511	-2.2899286	1.0442975
H	2.0979330	-1.6395760	1.8722914
C	3.0355751	-2.1941974	1.8921722
C	3.0609925	-3.3070140	2.8138598
C	4.0774135	-4.1472647	3.0359818
H	2.1419976	-3.4591634	3.3781705
H	5.0295203	-4.0812358	2.5282024
O	3.9695886	-5.1685967	3.9442122
C	5.1582977	-5.9486722	4.0339820
H	4.9926212	-6.7368801	4.7740850
H	6.0017926	-5.3348568	4.3680519
H	5.3863437	-6.4217656	3.0727248
