29
-0.00119292 (energy)
C	1.7699696	-2.9064920	1.0159203
C	1.3867457	-1.7792580	0.4032535
H	2.6930988	-3.4037982	0.7384186
H	1.1726434	-3.3560079	1.8050974
H	1.9812230	-1.3308765	-0.3831640
C	0.1283456	-1.1011873	0.7811094
O	-0.6453501	-1.4825869	1.6428754
O	0.0000000	0.0000000	0.0000000
C	-1.1743444	0.7900305	0.2354459
C	-2.3348289	0.2614627	-0.5866460
H	-0.9391614	1.8132246	-0.0755184
H	-1.4230035	0.8273035	1.3023897
H	-2.0713971	0.2318031	-1.6490251
H	-3.2191321	0.8922695	-0.4596248
H	-2.5903682	-0.7616356	-0.2932234
C	7.6978290	2.4601787	-3.8548573
H	8.4418962	2.7580977	-4.5875392
H	7.6940601	2.9993209	-2.9147098
H	6.9135222	0.9804413	-5.1016163
C	6.8411016	1.4705471	-4.1311914
C	5.7993366	0.9580112	-3.2706407
C	5.4944250	1.3748025	-2.0370342
H	5.2113220	0.1444027	-3.6930475
H	6.0168615	2.1738495	-1.5297957
O	4.4749528	0.7986900	-1.3240133
C	4.3102584	1.3831724	-0.0352691
H	3.4836537	0.8720933	0.4667226
H	4.0573570	2.4456086	-0.1196843
H	5.2140208	1.2518279	0.5695447
