29
-0.00107272 (energy)
C	0.2439949	-0.6176603	2.5469228
C	-0.5024198	0.2716846	1.8799833
H	0.1791210	-0.6994126	3.6265506
H	0.9337762	-1.2812159	2.0315984
H	-1.1897572	0.9332081	2.3926779
C	-0.4141054	0.3835629	0.4083142
O	0.3106779	-0.2877637	-0.3063331
O	-1.2718381	1.3573545	0.0143058
C	-1.3215675	1.6011098	-1.3987682
C	-0.2499205	2.5988458	-1.7963089
H	-2.3106342	2.0171173	-1.6169901
H	-1.2321626	0.6686207	-1.9680314
H	-0.3536577	3.5243667	-1.2204836
H	-0.3172968	2.8364232	-2.8617014
H	0.7500333	2.2049973	-1.5886958
C	6.8467867	-1.9750317	3.3258549
H	7.7926487	-2.2433088	2.8647835
H	6.7618953	-2.1321439	4.3948147
H	6.0224773	-1.3505639	1.5120959
C	5.8535082	-1.4766072	2.5810839
C	4.5433482	-1.0730246	3.0383768
C	4.0759059	-1.1210378	4.2904405
H	3.8815202	-0.6915441	2.2621011
H	4.6526380	-1.4823018	5.1304258
O	2.8048262	-0.7042417	4.5908826
C	2.4991020	-0.8355073	5.9761290
H	1.4750025	-0.4846777	6.1330103
H	3.1708532	-0.2184821	6.5826651
H	2.5554048	-1.8837228	6.2890377
