29
-0.00105165 (energy)
C	0.2936189	0.4833907	2.5705982
C	-0.7666999	0.4433880	1.7538967
H	0.1751668	0.7101116	3.6246640
H	1.2995875	0.2914269	2.2061249
H	-1.7692164	0.6346563	2.1162211
C	-0.6056026	0.1345781	0.3169520
O	0.4543465	-0.1009657	-0.2377896
O	-1.8351169	0.1667297	-0.2544314
C	-1.8697886	-0.1177678	-1.6603214
C	-1.6360753	1.1517247	-2.4576357
H	-2.8664419	-0.5132477	-1.8821629
H	-1.1474736	-0.8977669	-1.9276267
H	-2.3656910	1.9196662	-2.1804135
H	-1.7191625	0.9566566	-3.5305237
H	-0.6439250	1.5666873	-2.2537455
C	4.3380237	-0.5881301	0.0661565
H	3.3928638	-0.1782683	0.4095229
H	5.1062203	-0.7399281	0.8154209
H	3.6883003	-0.6973397	-1.9150302
C	4.5132750	-0.8809862	-1.2273795
C	5.7018532	-1.4284071	-1.8406715
C	6.8500723	-1.7455947	-1.2328427
H	5.6323967	-1.5921964	-2.9151465
H	7.0193443	-1.6211672	-0.1723844
O	7.9079580	-2.2606578	-1.9365585
C	9.0355743	-2.5314995	-1.1090732
H	9.8312561	-2.9369478	-1.7407179
H	8.7878292	-3.2777006	-0.3464056
H	9.4032772	-1.6124598	-0.6400332
