29
-0.000998735 (energy)
C	0.2860583	-0.5256176	2.5631525
C	-0.6752845	0.0671785	1.8439233
H	0.1885126	-0.6355737	3.6378071
H	1.1883480	-0.9127129	2.0965754
H	-1.5744369	0.4532109	2.3080415
C	-0.5425753	0.2174371	0.3790218
O	0.4070610	-0.1631297	-0.2843568
O	-1.6531762	0.8494310	-0.0752548
C	-1.6980851	1.0767526	-1.4912265
C	-1.0035174	2.3811886	-1.8346878
H	-2.7546647	1.1375374	-1.7720838
H	-1.2661780	0.2347884	-2.0445277
H	-1.4469352	3.2116971	-1.2756157
H	-1.0835773	2.5931640	-2.9045946
H	0.0564590	2.3450433	-1.5640019
C	4.4912682	-0.0905277	0.5582023
H	3.4061120	-0.0975824	0.5982114
H	5.0161097	-0.2551826	1.4920096
H	4.5153427	0.2720007	-1.4978039
C	5.1196069	0.1145608	-0.6049151
C	6.5472687	0.1535047	-0.8257773
C	7.5095944	-0.0077541	0.0887696
H	6.8494491	0.3351998	-1.8562245
H	7.3142883	-0.1923901	1.1358953
O	8.8350988	0.0530638	-0.2561466
C	9.7000835	-0.1435040	0.8586485
H	10.7325985	-0.0808017	0.5030449
H	9.5474970	-1.1347703	1.2990622
H	9.5474969	0.6373421	1.6115325
