29
-0.000960432 (energy)
C	0.2439949	-1.1639753	-2.3480804
C	-0.5024198	-1.4165525	-1.2655151
H	0.1791210	-1.7953208	-3.2276726
H	0.9337762	-0.3244180	-2.3798444
H	-1.1897572	-2.2528627	-1.2330429
C	-0.4141054	-0.5562856	-0.0662373
O	0.3106779	0.4173469	0.0496938
O	-1.2718381	-1.0489894	0.8615318
C	-1.3215675	-0.3274103	2.1006921
C	-0.2499205	-0.8361861	3.0465584
H	-2.3106342	-0.5058202	2.5352643
H	-1.2321626	0.7528331	1.9373806
H	-0.3536577	-1.9153097	3.2003640
H	-0.3172968	-0.3333599	4.0154082
H	0.7500333	-0.6679319	2.6343566
C	3.9990704	2.0336583	2.9135869
H	4.2275149	1.5028505	1.9942010
H	4.8417397	2.3744197	3.5038037
H	1.9388839	1.8642485	2.6201593
C	2.7268431	2.2405105	3.2718647
C	2.2580700	2.9240248	4.4557461
C	3.0055106	3.4785071	5.4161381
H	1.1751498	2.9819720	4.5561129
H	4.0865507	3.4746556	5.4094679
O	2.4304229	4.1007816	6.4939491
C	3.3950147	4.6249874	7.4019008
H	2.8601168	5.1020506	8.2281984
H	4.0181611	5.3816448	6.9130104
H	4.0181605	3.8232754	7.8127353
