29
-0.000913786 (energy)
C	-2.1615687	-1.4654820	-4.3907539
C	-1.5795924	-1.7484907	-3.2185392
H	-2.2332931	-2.2153518	-5.1711633
H	-2.5776327	-0.4824773	-4.5963170
H	-1.1647209	-2.7275466	-3.0130324
C	-1.4814453	-0.7265054	-2.1545660
O	-1.8984071	0.4164059	-2.2358544
O	-0.8490461	-1.2900178	-1.0954422
C	-0.6696005	-0.4347518	0.0425327
C	0.6119627	0.3647759	-0.0999258
H	-0.6028856	-1.0829531	0.9224873
H	-1.5362505	0.2199650	0.1903613
H	1.4675318	-0.3029065	-0.2452773
H	0.7884150	0.9763039	0.7894233
H	0.5694727	1.0227816	-0.9736251
C	2.3220910	-1.4849885	2.9371556
H	2.8388951	-1.1520196	2.0420246
H	2.2376497	-2.5555233	3.0834115
H	1.9537588	0.4685956	3.5751275
C	1.8248956	-0.5900593	3.7983243
C	1.1157617	-0.8676041	5.0265804
C	0.8224256	-2.0693893	5.5346527
H	0.7948486	0.0122853	5.5824192
H	1.0960204	-3.0017463	5.0607716
O	0.1397483	-2.1936232	6.7170847
C	-0.0730799	-3.5531904	7.0857130
H	-0.6199531	-3.5670183	8.0329254
H	0.8814083	-4.0703196	7.2319505
H	-0.6769613	-4.0703189	6.3322257
