29
-0.000824729 (energy)
C	-0.5531683	0.2896592	-0.0187105
C	0.6628029	-0.2708798	-0.0093387
H	-1.4152249	-0.2461142	0.3637727
H	-0.7141509	1.2921094	-0.4070940
H	0.8239755	-1.2695974	0.3772985
C	1.8381133	0.4590653	-0.5308284
O	1.8169046	1.5851911	-0.9978424
O	2.9200729	-0.3475777	-0.3970057
C	4.1628389	0.2064696	-0.8522330
C	4.3422988	-0.0580187	-2.3353996
H	4.9599448	-0.2917082	-0.2906486
H	4.2297875	1.2767105	-0.6248745
H	4.2743172	-1.1304368	-2.5456928
H	5.3133770	0.3084904	-2.6799602
H	3.5567191	0.4315011	-2.9196619
C	1.4768356	-2.6390727	7.7185602
H	1.2895030	-3.1190286	8.6744698
H	1.5420041	-1.5572600	7.7189975
H	1.5358343	-4.4604319	6.6995717
C	1.6157275	-3.3773570	6.6116012
C	1.8666767	-2.8958754	5.2723047
C	2.0074525	-1.6233577	4.8858441
H	1.9460438	-3.6708697	4.5112316
H	1.9459851	-0.7827133	5.5627827
O	2.2441771	-1.3010034	3.5744795
C	2.3629007	0.1037705	3.3692463
H	2.5496194	0.2773812	2.3055413
H	3.2068484	0.5097071	3.9374218
H	1.4347361	0.6165780	3.6437946
