29
-0.000385088 (energy)
C	-2.9264737	1.5486560	3.8905209
C	-2.3473430	0.5778117	3.1729231
H	-3.7478169	1.3278362	4.5636643
H	-2.5945643	2.5815136	3.8219274
H	-2.6775324	-0.4514096	3.2406016
C	-1.2278475	0.8784699	2.2550667
O	-0.7469907	1.9835300	2.0697830
O	-0.8490461	-0.2840741	1.6683650
C	0.2406406	-0.1806375	0.7407059
C	-0.2792548	0.1676809	-0.6414397
H	0.7313921	-1.1590799	0.7133307
H	0.9881942	0.5446316	1.0823753
H	-1.0230924	-0.5661908	-0.9686448
H	0.5374027	0.1908942	-1.3684715
H	-0.7741241	1.1440164	-0.6405353
C	3.1342808	-3.9119236	2.5194894
H	2.5916666	-3.5541701	3.3894300
H	3.3614179	-4.9711100	2.4863410
H	3.2224323	-2.0092036	1.6644728
C	3.4906904	-3.0592542	1.5522045
C	4.2107993	-3.3735248	0.3392774
C	4.6568090	-4.5740301	-0.0458633
H	4.3996506	-2.5254921	-0.3174746
H	4.5206348	-5.4764665	0.5335952
O	5.3305698	-4.7357859	-1.2288719
C	5.7206223	-6.0870353	-1.4560053
H	6.2486745	-6.1322196	-2.4128710
H	4.8432458	-6.7400727	-1.5160748
H	6.4016152	-6.4323481	-0.6706101
