29
-0.00284515 (energy)
C	0.2860583	0.3827308	2.5883473
C	-0.6752845	0.6937860	1.7097447
H	0.1885126	0.6469594	3.6357995
H	1.1883480	-0.1405986	2.2823026
H	-1.5744369	1.2152756	2.0138423
C	-0.5425753	0.3339571	0.2817961
O	0.4070610	-0.2505475	-0.2114143
O	-1.6531762	0.7724654	-0.3612389
C	-1.6980851	0.5017870	-1.7695656
C	-1.0035174	1.6100852	-2.5384570
H	-2.7546647	0.4628472	-2.0542748
H	-1.2661780	-0.4786407	-2.0015300
H	-1.4469352	2.5817218	-2.2971517
H	-1.0835773	1.4433472	-3.6163404
H	0.0564590	1.6686997	-2.2717331
C	2.8635656	-2.5007290	-7.3706206
H	2.8136604	-2.7301961	-8.4308417
H	2.1464667	-2.9984680	-6.7282882
H	4.4628631	-1.1831634	-7.6264259
C	3.7789603	-1.6398457	-6.9116593
C	3.9754395	-1.2305177	-5.5396675
C	3.2808946	-1.6337470	-4.4703292
H	4.7820134	-0.5156521	-5.3829723
H	2.4632013	-2.3391809	-4.5198035
O	3.5720770	-1.1643902	-3.2155205
C	2.7201207	-1.7137971	-2.2145569
H	3.0145406	-1.2926718	-1.2489259
H	2.8318209	-2.8022752	-2.1636226
H	1.6751572	-1.4447580	-2.4029895
