11
-268.225 (energy)
C	-1.2362797	-0.4298083	0.4503867
H	-1.2118745	-0.8724146	1.4391153
C	-2.3430876	-0.3011400	-0.2819569
H	-3.2959877	-0.6499365	0.1039137
H	-2.3372352	0.1462642	-1.2690627
O	0.0041199	-0.0230687	0.0526873
H	-0.0653858	0.3661161	-0.8361857
C	3.2440303	-1.3765930	1.5607003
H	2.7755492	-0.4986660	1.0879414
H	2.7312106	-1.7642705	2.4553947
O	4.2665254	-1.8874365	1.1210622
