11
-268.222 (energy)
C	0.1282732	-0.5350094	1.3029459
H	1.0651471	-0.5908296	1.8444543
C	0.0057822	-0.0309311	0.0746106
H	0.8765652	0.3563336	-0.4453287
H	-0.9454135	0.0119575	-0.4430475
O	-0.9047720	-1.0439241	2.0350773
H	-1.7220564	-0.9735083	1.5121252
C	3.6697070	0.5314474	3.3141158
H	3.3663126	1.2142640	2.5045204
H	4.2694473	-0.3383612	3.0018653
O	3.3609301	0.7262771	4.4830629
