18
-0.0015381 (energy)
C	0.1082633	-2.1151728	-1.4500824
O	1.1721209	-2.7258340	-1.5046605
H	-0.4582670	-1.9249563	-2.3787362
C	-0.4955150	-1.4932120	-0.2125766
Cl	-0.0163279	-2.4302897	1.2298473
H	-1.5849069	-1.5707120	-0.2877529
C	-0.0500974	-0.0344973	-0.0712256
H	1.0428598	0.0393234	-0.0191032
H	-0.4463585	0.3714303	0.8671745
N	-0.5257835	0.8290961	-1.1626392
H	0.0985163	0.7403944	-1.9674965
H	-0.4262609	1.8049605	-0.8721150
O	4.0784557	2.3918235	-1.4667972
H	4.2881813	2.8014538	-0.6102472
C	4.4865688	1.0382718	-1.3917325
H	4.2643254	0.5468815	-2.3418708
H	3.9417166	0.5365014	-0.5883251
H	5.5617409	0.9909078	-1.2022805
