18
-0.00493981 (energy)
C	-0.7354406	-2.6776130	1.3043906
O	-0.7642833	-3.0184393	2.4836635
H	0.1223826	-2.9711837	0.6739208
C	-1.7436699	-1.7904789	0.6120965
Cl	-3.3500762	-2.0014932	1.3625988
H	-1.8374824	-2.1249973	-0.4260407
C	-1.3104311	-0.3231798	0.6866813
H	-1.1960420	0.0002889	1.7283169
H	-2.0901603	0.3035336	0.2376293
N	-0.0552301	-0.0484140	-0.0290202
H	0.7396807	-0.2896262	0.5670898
H	0.0277052	0.9623070	-0.1638733
O	3.5437358	0.3063721	1.4353203
H	4.1934205	-0.4111498	1.5276874
C	4.0088351	1.3918562	2.2161531
H	3.2990326	2.2183537	2.1342902
H	4.9853194	1.7151765	1.8473125
H	4.0862196	1.0831128	3.2615333
