18
0.00107098 (energy)
C	-2.3752479	1.9012724	-0.3940554
O	-2.5433907	3.0648442	-0.0397848
H	-2.8441374	1.0839299	0.1818183
C	-1.4901678	1.4377576	-1.5274536
Cl	-1.4209364	2.6953766	-2.7931247
H	-1.9540207	0.5584454	-1.9858016
C	-0.0818426	1.1204378	-1.0154442
H	0.3694117	1.9981396	-0.5371861
H	0.5562355	0.8522315	-1.8659244
N	-0.0457745	-0.0008851	-0.0643456
H	-0.2855026	0.3347221	0.8712353
H	0.9215092	-0.3224245	0.0228051
O	3.1838904	-3.5727831	1.4037132
H	3.1957214	-3.1584011	0.5241637
C	3.1107908	-2.5271412	2.3553342
H	3.0957090	-2.9599112	3.3583805
H	2.1960006	-1.9511699	2.1955939
H	3.9846651	-1.8789625	2.2536547
