18
0.00107898 (energy)
C	2.1663826	-2.1570676	-0.2564474
O	2.0861968	-3.3822696	-0.2678143
H	2.4817177	-1.6409132	0.6675034
C	1.7824580	-1.2320556	-1.3877118
Cl	2.0376996	-2.0531264	-2.9526452
H	2.4603479	-0.3726150	-1.3716093
C	0.3219805	-0.7911624	-1.2504386
H	-0.3509655	-1.6570889	-1.2443776
H	0.0504448	-0.1771462	-2.1174147
N	0.0652202	0.0092999	-0.0435464
H	-0.0707689	-0.6113826	0.7574990
H	-0.8354226	0.4821668	-0.1524500
O	4.5799079	1.3035869	-3.9207722
H	3.9497075	1.4764775	-3.2007611
C	4.3662023	2.2956324	-4.9079239
H	5.0610233	2.1298638	-5.7345822
H	4.5448693	3.2839198	-4.4772650
H	3.3402516	2.2276680	-5.2779733
