18
0.00342606 (energy)
C	-0.4775289	-3.0153992	-0.3020811
O	0.0995666	-3.9767343	0.1983931
H	-0.2501182	-2.7258511	-1.3432261
C	-1.4417650	-2.0922754	0.4056586
Cl	-2.3055189	-2.9876246	1.6865180
H	-2.1994790	-1.7708255	-0.3161252
C	-0.6988420	-0.8934628	1.0032697
H	0.0741333	-1.2219751	1.7084721
H	-1.4091787	-0.2768422	1.5668261
N	-0.0716853	-0.0315386	-0.0101480
H	0.8312017	-0.4252278	-0.2844059
H	0.1648188	0.8634356	0.4254063
O	3.2783980	-4.6375897	-0.4800651
H	4.1284317	-4.7422624	-0.0196893
C	3.4806183	-3.6965550	-1.5182624
H	2.5411119	-3.5551240	-2.0576549
H	4.2412228	-4.0710893	-2.2076866
H	3.7994488	-2.7430919	-1.0900265
