11
-0.00682234 (energy)
C	-0.2501270	-0.6694589	1.1850317
H	0.3655980	-0.3068971	1.9979031
C	-1.1445760	-1.6472477	1.3131977
H	-1.3030776	-2.1407485	2.2651583
H	-1.7360337	-1.9717409	0.4633585
O	-0.0408589	-0.0400163	-0.0076373
H	0.6484599	0.6350883	0.1212089
C	3.4935388	-0.9243775	-0.9382123
H	2.6410289	-1.5576133	-1.2314196
H	4.4696271	-1.2192344	-1.3554257
O	3.3647884	0.0426820	-0.1979704
