11
-0.00557179 (energy)
C	-0.0259498	-0.0623970	0.0496446
H	0.3089799	0.7429503	-0.5911098
C	-0.9643507	0.0764352	0.9838104
H	-1.4514088	1.0300977	1.1517306
H	-1.2622601	-0.7661621	1.5991351
O	0.5949488	-1.2573261	-0.1718950
H	1.2395677	-1.1367459	-0.8912384
C	3.8096420	-0.4157256	1.1848392
H	3.9991200	-1.4903483	1.3365475
H	3.8415913	0.2050747	2.0944227
O	3.5789200	0.0571643	0.0789995
