11
-0.00432007 (energy)
C	0.0103789	0.5309427	-1.2779010
H	0.0025089	1.6131753	-1.2716617
C	0.0280142	-0.2027178	-2.3887420
H	0.0355444	0.2624974	-3.3677277
H	0.0352463	-1.2864980	-2.3366551
O	0.0007417	-0.0421562	-0.0393877
H	-0.0117705	0.6690485	0.6251116
C	2.7514501	-1.1026227	0.0099131
H	2.2899669	-1.7369198	0.7834968
H	2.5095645	-1.3712297	-1.0308066
O	3.4843472	-0.1618089	0.2882477
