11
-0.00427373 (energy)
C	0.5154879	-0.0552254	-1.2830672
H	1.5337677	-0.4214986	-1.2997539
C	-0.1610642	0.3006045	-2.3731125
H	0.2888603	0.2385420	-3.3572928
H	-1.1815249	0.6617338	-2.2983437
O	-0.0391785	0.0180711	-0.0383088
H	0.6217906	-0.2868010	0.6079890
C	3.7735015	1.2038094	1.0366689
H	3.6680570	2.1752388	0.5278096
H	4.0025105	1.2540833	2.1131369
O	3.6447501	0.1392058	0.4452461
