11
-0.00402975 (energy)
C	-0.0114491	0.0556606	0.0616619
H	0.1363226	-0.6627407	-0.7341971
C	-0.7891027	1.1308535	-0.0467419
H	-1.3265677	1.3438058	-0.9636266
H	-0.9013718	1.8192766	0.7844104
O	0.6705510	-0.2239500	1.2102019
H	1.1719634	-1.0470688	1.0738595
C	4.1746040	1.0286728	-0.2540786
H	4.5289616	1.3564591	-1.2443908
H	4.5064717	1.6448038	0.5968047
O	3.4595680	0.0451329	-0.1087802
