11
-0.00395348 (energy)
C	0.3748116	1.0379559	0.8349867
H	1.3885881	1.3677794	0.6484343
C	-0.4183080	1.5712561	1.7618571
H	-0.0764338	2.3844715	2.3916963
H	-1.4279532	1.2010608	1.9064834
O	-0.0432344	0.0139263	0.0355798
H	0.6861619	-0.2210205	-0.5646777
C	4.5132594	0.4588475	0.7157142
H	5.6045137	0.6070248	0.6850733
H	3.9945827	0.9249247	1.5686517
O	3.9166298	-0.1811893	-0.1410967
