11
-0.00394977 (energy)
C	-0.0415258	-0.0370482	0.0627248
H	0.4944405	0.4411265	-0.7468537
C	-1.0859575	0.5081462	0.6827747
H	-1.4597579	1.4848965	0.3979465
H	-1.5867859	-0.0165401	1.4897567
O	0.4389620	-1.2658398	0.4115127
H	1.1976398	-1.4704112	-0.1630191
C	4.3968124	-0.0106487	-1.0439925
H	5.2689761	0.6621152	-1.0652198
H	4.3498000	-0.7528590	-1.8568083
O	3.5370135	0.0616991	-0.1749410
