11
-0.00386865 (energy)
C	-0.5859078	1.1979101	0.3698140
H	-1.3324636	1.5254622	-0.3420092
C	-0.2695579	1.8718977	1.4735349
H	-0.7588049	2.8075714	1.7185795
H	0.4880688	1.4966428	2.1536308
O	0.0223684	0.0189369	0.0497004
H	-0.3550029	-0.3005426	-0.7887814
C	2.9684293	-0.7007029	0.8185420
H	2.3861169	-1.6355262	0.7911733
H	2.7751905	-0.0461007	1.6833603
O	3.7765441	-0.4087047	-0.0540555
