11
-0.00381793 (energy)
C	-0.0811585	0.0027124	0.0209118
H	0.9663405	-0.0322959	-0.2489929
C	-1.0451491	0.4050015	-0.8045712
H	-0.8200771	0.7257658	-1.8151886
H	-2.0807628	0.4201050	-0.4811196
O	-0.3509688	-0.4035556	1.2955094
H	0.4889176	-0.6524754	1.7199595
C	4.2487254	-0.7544895	-1.0920057
H	5.2167766	-0.5036176	-1.5542518
H	3.7468559	-1.6480088	-1.4963646
O	3.7629609	-0.0848745	-0.1890176
