11
-0.00380983 (energy)
C	-0.0174841	-0.1038803	1.3798341
H	-0.0186702	-1.1336392	1.7128859
C	-0.0312833	0.9409032	2.2049241
H	-0.0447458	0.8057961	3.2803122
H	-0.0293265	1.9538585	1.8159993
O	-0.0004704	0.0523760	0.0241996
H	0.0074651	-0.8312445	-0.3840650
C	2.7940564	0.9261171	-0.0460183
H	2.5601250	1.1918391	0.9972454
H	2.2472046	1.4949119	-0.8149016
O	3.6076167	0.0565707	-0.3319337
