11
-0.00378874 (energy)
C	-0.0281178	0.0749886	0.0248487
H	0.3347933	-0.8928769	-0.2958694
C	-0.8618911	0.8270615	-0.6905147
H	-1.2272794	0.4961187	-1.6558453
H	-1.1943372	1.7912538	-0.3201667
O	0.4392658	0.4798593	1.2414352
H	1.0285136	-0.2134441	1.5873332
C	4.3498997	0.6059032	-0.0850911
H	5.3316862	0.1096771	-0.0252060
H	4.3776196	1.7024270	-0.1881593
O	3.2980046	-0.0195817	-0.0400990
