11
-0.00362929 (energy)
C	-1.1949875	0.1469760	-0.6822330
H	-1.7879432	-0.7583190	-0.6690860
C	-1.5740434	1.2713448	-1.2860938
H	-2.5217815	1.3351900	-1.8082155
H	-0.9390675	2.1510147	-1.2678976
O	-0.0045303	0.0533276	-0.0215575
H	0.0718996	-0.8463477	0.3421332
C	3.1797633	1.1652960	0.4171034
H	3.7534106	2.0523032	0.1042483
H	2.2531779	1.3719869	0.9760974
O	3.5475035	0.0256772	0.1606368
