11
-0.00322254 (energy)
C	0.0360209	0.0635377	-0.0411925
H	-0.4288951	-0.7565320	0.4904719
C	-0.6453782	1.0232692	-0.6634039
H	-1.7292827	1.0289538	-0.6670888
H	-0.1272631	1.8232250	-1.1820290
O	1.4005520	0.0446759	-0.0289642
H	1.6897562	-0.7352197	0.4766561
C	4.1002050	1.2559362	0.7341877
H	4.1348748	1.4803482	1.8122269
H	3.8339552	2.1024723	0.0813144
O	4.3415067	0.1400346	0.2911572
