11
-0.00318997 (energy)
C	0.0263772	0.0795410	-0.0029715
H	-0.3140686	-0.9470816	0.0353807
C	-0.7605101	1.1093975	-0.3075045
H	-1.8096344	0.9642832	-0.5381017
H	-0.3659303	2.1198868	-0.3312294
O	1.3486823	0.2485012	0.2892821
H	1.7322806	-0.6254189	0.4807080
C	4.6650975	0.7777262	1.1719656
H	4.6867926	0.4833297	2.2333757
H	4.8429454	1.8464227	0.9719309
O	4.4571814	-0.0290680	0.2744173
