11
-0.00307324 (energy)
C	0.0591208	-0.0256943	-0.0536274
H	-0.7039418	0.3059371	0.6385318
C	-0.1934736	-0.7467306	-1.1439663
H	-1.2044489	-1.0443645	-1.3974183
H	0.6112648	-1.0526786	-1.8043728
O	1.3271527	0.3555350	0.2768417
H	1.2851443	0.8696029	1.1023703
C	4.5958252	0.6279331	0.2382480
H	4.0525685	1.2438710	0.9725667
H	3.9924267	0.2474285	-0.6013248
O	5.7906182	0.3826091	0.3479054
