11
-0.00227886 (energy)
C	0.1737783	0.4177075	-1.3370337
H	-0.6208341	0.8252663	-1.9484380
C	0.0095167	0.0238069	-0.0759243
H	-0.9556348	0.0946690	0.4122930
H	0.8423211	-0.3781340	0.4917244
O	1.3833936	0.3338662	-1.9633338
H	1.2807007	0.6718866	-2.8703754
C	4.0761947	-0.8433073	-0.6959991
H	4.9943111	-0.5439365	-1.2262544
H	3.5930473	-1.7621543	-1.0648413
O	3.6229541	-0.1978370	0.2408466
