11
-0.00498896 (energy)
C	-0.5156669	-0.3872883	-1.2243914
H	-1.1727226	-1.2431094	-1.1396778
C	-0.2372422	0.2210268	-2.3754643
H	-0.6678365	-0.1218960	-3.3092134
H	0.4295571	1.0765877	-2.4026477
O	0.0196868	0.0343322	-0.0419859
H	-0.3124437	-0.5448773	0.6663457
C	2.8358996	-0.0715909	0.0635166
H	2.6348181	-0.1674190	-1.0154248
H	2.9072432	0.9600848	0.4433997
O	2.9710840	-1.0467165	0.7919356
