11
-0.00461032 (energy)
C	-0.4289301	-0.8540400	-1.0008364
H	0.2405647	-1.6933158	-1.1376621
C	-1.5370860	-0.6671742	-1.7147049
H	-1.8297156	-1.3669019	-2.4890717
H	-2.1730464	0.1934440	-1.5351629
O	-0.0492235	0.0191764	-0.0232034
H	0.7812128	-0.3043430	0.3682540
C	4.1741999	-0.1087508	0.4248499
H	4.5285575	0.3052945	-0.5326095
H	4.5060676	0.4297511	1.3268673
O	3.4591639	-1.1012845	0.4826358
