11
0.000718906 (energy)
C	0.0678503	0.0070937	0.0489275
H	-0.8078815	-0.0844638	-0.5825717
C	0.3830387	1.1081264	0.7317817
H	-0.2535065	1.9857447	0.6754794
H	1.2665886	1.1708583	1.3562711
O	0.8030178	-1.1425465	0.0559249
H	1.5757395	-1.0150877	0.6330265
C	4.4261101	1.8524405	0.5375998
H	4.2669997	1.4117857	1.5347148
H	3.7725780	1.4674470	-0.2614194
O	5.2728623	2.7127529	0.3311721
