11
0.000788325 (energy)
C	0.0589478	0.0462685	-0.0378454
H	-0.7018809	-0.5509106	0.4506186
C	1.3085711	0.1733045	0.4096027
H	1.6181322	-0.3384687	1.3156015
H	2.0491075	0.7782558	-0.1005174
O	-0.4228675	0.6485283	-1.1636029
H	0.2910877	1.1716301	-1.5673645
C	1.0615917	4.9371609	-1.0717538
H	1.2456767	4.8594901	0.0116719
H	1.2377563	4.0164123	-1.6504972
O	0.6862161	5.9774869	-1.5976378
