11
0.00104358 (energy)
C	-0.5237074	-0.7318611	1.0910853
H	-1.5266992	-0.6029745	1.4802842
C	-0.0285997	-0.0426746	0.0625927
H	-0.6390893	0.7012484	-0.4398562
H	0.9796211	-0.1931292	-0.3054247
O	0.1642850	-1.6847376	1.7845445
H	1.0551407	-1.7663363	1.4023028
C	3.8648800	-2.8669206	-1.2941073
H	4.6134810	-3.3539933	-0.6490585
H	3.1529432	-2.2033786	-0.7777607
O	3.8266650	-3.0507863	-2.5042610
