11
0.0015123 (energy)
C	0.0823318	0.0128344	0.0102294
H	-0.9803102	-0.1528170	-0.1217996
C	0.5977369	0.9491003	0.8075186
H	-0.0571464	1.6036365	1.3743379
H	1.6661740	1.0919016	0.9199143
O	0.8217450	-0.8547766	-0.7399122
H	1.7651884	-0.6702986	-0.5906696
C	2.9250118	-2.5266394	2.0818994
H	3.6741139	-3.3132757	1.8981039
H	3.2572267	-1.4968779	1.8745823
O	1.7982955	-2.7799554	2.4894287
