11
0.00164085 (energy)
C	-0.9828166	-0.4675133	0.8552622
H	-0.6020720	-0.8283421	1.8033742
C	-2.2740127	-0.4648393	0.5225278
H	-3.0175234	-0.8395529	1.2192023
H	-2.6261224	-0.0972626	-0.4342840
O	0.0229024	-0.0185415	0.0495659
H	-0.3634775	0.2942666	-0.7866473
C	2.8810362	-1.7935716	-0.9939903
H	2.4270584	-2.5831270	-1.6138594
H	3.6440779	-1.1765893	-1.4948456
O	2.5590064	-1.6137395	0.1737837
