40
-0.000739803 (energy)
C	-3.8990731	-0.5993818	2.6647014
H	-2.4490446	-0.5332764	4.1646538
C	-2.6306973	-0.5331525	3.0917961
H	-4.1606024	-0.6452372	1.6128032
H	-4.7162782	-0.6318705	3.3787706
C	-1.4445647	-0.5149526	2.2526903
C	-1.4022093	0.0368329	1.0253077
H	-2.2860794	0.5334988	0.6363700
O	-0.3644919	-1.1697823	2.8167003
C	0.4451296	-0.2834536	3.5896421
H	1.3054624	-0.8503471	3.9574380
H	-0.1056733	0.0971281	4.4560909
H	0.8197833	0.5505218	2.9872788
S	0.0000000	0.0000000	0.0000000
C	-0.7177471	0.6772330	-1.4841985
C	-0.5948400	2.0414985	-1.7651792
C	-1.1549803	2.5724859	-2.9289695
H	-0.0622975	2.6985334	-1.0819722
C	-1.8354752	1.7413450	-3.8180201
H	-1.0569059	3.6336528	-3.1430121
C	-1.3945814	-0.1531328	-2.3835109
C	-1.9543293	0.3788609	-3.5468297
H	-2.2690177	2.1547176	-4.7252429
H	-2.4791810	-0.2709321	-4.2423891
H	-1.4883484	-1.2182093	-2.1846855
C	3.7564439	0.1546772	-0.3537848
C	4.0748173	-0.6690815	0.6526632
H	2.7307203	0.4708010	-0.5101334
H	4.5101050	0.5301485	-1.0413020
H	3.3245210	-1.0436935	1.3379539
C	5.4728852	-1.1003920	0.8659779
O	6.4247379	-0.7664999	0.1809935
O	5.4929697	-1.9237796	1.9434043
C	6.7831747	-2.4385972	2.3025722
C	7.0771597	-3.7062003	1.5223810
H	6.7504824	-2.6649560	3.3733798
H	7.5675938	-1.6869591	2.1565704
H	6.2860733	-4.4467070	1.6797261
H	8.0326396	-4.1391366	1.8316836
H	7.1162399	-3.5055480	0.4470491
