31
-0.00450493 (energy)
C	1.9254239	0.2711518	-1.5568680
O	2.3717798	1.3861998	-1.3267431
O	2.0260107	-0.2588234	-2.8398955
H	1.6594641	-1.1640962	-2.9129966
N	1.3055312	-0.1781457	0.8273719
C	2.4768356	0.1484542	2.9113075
H	1.6546320	0.6740520	3.3794346
H	3.3685436	0.0121117	3.5092777
C	2.4339331	-0.3197180	1.6427000
C	3.6147995	-1.0441889	1.0347797
H	3.9919705	-0.5251586	0.1452524
H	4.4299522	-1.0975282	1.7590619
H	3.3620951	-2.0728274	0.7443702
C	-0.7889682	0.6300468	0.0332937
C	0.1224219	0.5768244	1.2755439
C	1.1937451	-0.6329573	-0.5477145
C	-0.3411925	-0.5851862	-0.8068198
H	-1.8507462	0.5889550	0.2916570
H	-0.6126223	1.5562395	-0.5241838
H	-0.3572163	0.0615279	2.1213479
H	0.4113703	1.5783871	1.6178217
H	1.5799294	-1.6547364	-0.6658993
H	-0.5918561	-0.4875504	-1.8677915
H	-0.7936033	-1.5086050	-0.4288501
C	-2.7458621	-0.8704463	-5.0645926
H	-2.2403014	-0.1780147	-5.7642566
O	-2.1588360	-1.2651525	-4.0508769
C	-4.1450884	-1.2659431	-5.4451526
H	-4.1458617	-1.7491832	-6.4313196
H	-4.5652386	-1.9471898	-4.7022168
H	-4.7800278	-0.3739483	-5.5288822
