31
-0.00254197 (energy)
C	-1.9450975	-0.4977470	1.4708848
O	-1.3894345	-0.1841153	2.5238449
O	-3.2933801	-0.8029286	1.4084730
H	-3.7010607	-0.7379294	2.2997642
N	0.0000000	0.0000000	0.0000000
C	1.4490009	1.9206086	-0.1925449
H	2.3580831	1.3432277	-0.0839155
H	1.5653827	2.9878117	-0.3303325
C	0.2120399	1.3721079	-0.1583438
C	-1.0266999	2.2271791	-0.3138472
H	-1.6852007	2.1529389	0.5607356
H	-0.7430465	3.2753605	-0.4276614
H	-1.6133276	1.9414671	-1.1967612
C	0.4415754	-2.2941729	0.4691860
C	1.1203172	-0.9349302	0.1998702
C	-1.2989792	-0.6504798	0.0963014
C	-0.9578246	-2.1452164	-0.1659058
H	1.0044411	-3.1315407	0.0469107
H	0.3491402	-2.4608670	1.5479803
H	1.7558781	-0.9581320	-0.6981687
H	1.7478391	-0.6140871	1.0412782
H	-2.0104284	-0.2765310	-0.6451984
H	-1.7048887	-2.8252080	0.2517067
H	-0.9141703	-2.3062372	-1.2486325
C	2.4695364	0.3097558	-3.8748049
H	2.3246488	1.3772394	-3.6216862
O	3.0875940	-0.4318544	-3.1027742
C	1.8728935	-0.1310493	-5.1820103
H	2.2979811	0.4549946	-6.0077827
H	2.0626806	-1.1932833	-5.3499882
H	0.7907822	0.0556014	-5.1851847
