31
-0.0014349 (energy)
C	2.4537830	-0.5266630	2.0818955
O	2.1216266	0.3886022	2.8354291
O	2.8253683	-1.7739218	2.5521793
H	2.7882700	-1.7951592	3.5335055
N	1.8472430	0.6484371	-0.0266365
C	-0.1448612	1.8178131	-0.7262758
H	0.3872999	2.7185471	-1.0039130
H	-1.2176602	1.8242383	-0.8695010
C	0.4649820	0.7213718	-0.2183359
C	-0.3284465	-0.5118742	0.1550005
H	-0.2141008	-0.7636671	1.2168646
H	-1.3903993	-0.3418294	-0.0332508
H	-0.0212042	-1.3889561	-0.4294907
C	4.1203555	1.3373577	0.1649404
C	2.7267123	1.7942444	-0.3144085
C	2.5625509	-0.4757589	0.5601025
C	4.0361421	-0.2041571	0.1428039
H	4.9250109	1.7204203	-0.4691825
H	4.3004837	1.6894955	1.1865476
H	2.7106325	2.0198127	-1.3913534
H	2.3819947	2.6907691	0.2167268
H	2.2183946	-1.4388865	0.1731123
H	4.7560581	-0.6934124	0.8040480
H	4.1857111	-0.5886401	-0.8720520
C	3.9172283	-5.9706774	1.0059744
H	3.0846060	-6.1226863	1.7188673
O	4.6768945	-6.9064642	0.7317072
C	4.0311240	-4.5865770	0.4311945
H	4.1611224	-3.8524179	1.2375180
H	4.8755547	-4.5274455	-0.2587454
H	3.1051805	-4.3188277	-0.0948781
