31
-0.00364051 (energy)
C	0.3365409	0.1599230	0.3199474
O	0.8733929	-0.2809452	-0.6996263
O	-1.0333309	0.1717209	0.4804386
H	-1.4688025	-0.1707081	-0.3308904
N	0.5077709	1.8820200	2.1292596
C	1.1918196	3.2955856	0.2850857
H	1.6056459	2.4860055	-0.3026822
H	1.2545335	4.2858550	-0.1474564
C	0.6083895	3.1233931	1.4955843
C	0.0187886	4.2922309	2.2542314
H	0.4635491	4.3960219	3.2519739
H	0.1948419	5.2205374	1.7071394
H	-1.0646342	4.1813896	2.3893256
C	-0.1775049	0.1034018	3.5490428
C	-0.1680308	1.6396851	3.4193258
C	1.0834994	0.6771150	1.5464804
C	1.0387305	-0.3479577	2.7133120
H	-0.1119243	-0.2233914	4.5911485
H	-1.0977944	-0.3017539	3.1183022
H	0.3840690	2.1053740	4.2499846
H	-1.1846164	2.0480012	3.4237587
H	2.1107743	0.8551571	1.2077746
H	0.9621632	-1.3819136	2.3648139
H	1.9649645	-0.2566640	3.2920095
C	1.5316415	-4.3467295	-0.8253155
H	0.7518330	-4.0329409	-1.5450503
O	1.3246557	-5.2972327	-0.0626145
C	2.8036604	-3.5468893	-0.8613929
H	2.5898940	-2.4883989	-0.6615205
H	3.5134605	-3.9239932	-0.1221006
H	3.2523031	-3.5960125	-1.8624523
