31
-0.00389894 (energy)
C	0.3869573	-0.4890043	-2.4179297
O	0.7439030	-1.2158206	-3.3412895
O	0.2936315	0.8725109	-2.5551314
H	0.0826188	1.2610182	-1.6708821
N	0.0000000	0.0000000	-0.0000000
C	2.4299545	-0.1423563	0.0543800
H	2.4937220	-0.8523967	-0.7603585
H	3.3715747	0.2033432	0.4617615
C	1.2682824	0.3384551	0.5449095
C	1.2425559	1.3451862	1.6739126
H	0.8290578	0.9229723	2.5985880
H	2.2561076	1.6870244	1.8937018
H	0.6344545	2.2211101	1.4153017
C	-2.0448855	-1.2079777	0.3478431
C	-1.2436623	0.0163889	0.8327618
C	-0.0847554	-1.0233460	-1.0631225
C	-1.5918563	-1.3878699	-1.1129280
H	-1.7728568	-2.0917132	0.9372073
H	-3.1250600	-1.0619083	0.4406132
H	-1.0067151	-0.0517602	1.8974580
H	-1.8006351	0.9480745	0.6715090
H	0.5202502	-1.9082931	-0.8252531
H	-2.1229844	-0.6865947	-1.7682141
H	-1.7471125	-2.3962049	-1.5022364
C	4.5246530	-2.4166415	-3.3346411
H	4.4954556	-1.4578711	-3.8864469
O	4.3687483	-2.4309648	-2.1084679
C	4.7602706	-3.6395157	-4.1761524
H	5.7135314	-3.5497923	-4.7140095
H	4.7735902	-4.5359243	-3.5525733
H	3.9742771	-3.7311247	-4.9374903
