31
-0.00412155 (energy)
C	1.8244030	-1.6897092	0.4893300
O	1.4381850	-2.7827785	0.0780801
O	3.1625594	-1.3958265	0.5125963
H	3.3787438	-0.5109082	0.9002379
N	1.2546314	0.7534554	0.5752459
C	2.9310516	1.0744050	2.3032324
H	2.7272207	0.1458542	2.8240356
H	3.6789331	1.7161150	2.7492182
C	2.2239760	1.5099867	1.2211842
C	2.5035661	2.8699416	0.6187130
H	1.6089484	3.5042361	0.6349515
H	3.2874240	3.3781610	1.1828304
H	2.8299416	2.7905274	-0.4250768
C	-0.5016122	0.0516939	-0.8710765
C	0.3687334	1.2676174	-0.4978941
C	0.8586080	-0.5999764	1.0136156
C	-0.5543479	-0.7780166	0.4288797
H	-1.4920330	0.3497979	-1.2258015
H	-0.0214849	-0.5326621	-1.6642326
H	-0.2504347	2.0966350	-0.1250247
H	0.9474209	1.6368150	-1.3510468
H	0.8488999	-0.6566296	2.1114688
H	-0.7790435	-1.8313424	0.2560049
H	-1.2939319	-0.3639006	1.1231848
C	-0.7302184	5.9102125	-1.0807127
H	0.1221491	6.6132251	-1.0188599
O	-0.5265804	4.6918301	-1.1264079
C	-2.0919147	6.5461158	-1.1028083
H	-2.1761122	7.2284910	-1.9591504
H	-2.8697003	5.7820295	-1.1644398
H	-2.2404212	7.1519539	-0.1990830
