31
-0.0050712 (energy)
C	1.3268418	-1.8560312	-1.0467633
O	1.4902245	-3.0751957	-1.0527194
O	1.4448004	-1.1392983	-2.2086371
H	1.3395120	-0.1613176	-2.0966098
N	0.0000000	0.0000000	-0.0000000
C	1.5790320	1.6176620	-0.8883460
H	2.4617241	1.0136858	-0.7121159
H	1.7513098	2.6054323	-1.2941191
C	0.3191939	1.2485586	-0.5180943
C	-0.8444933	2.1981634	-0.7043789
H	-1.3356417	2.4184386	0.2512289
H	-0.4971228	3.1410570	-1.1300947
H	-1.6047164	1.7796581	-1.3746318
C	-1.1599583	-1.8336515	0.9802695
C	-1.3278739	-0.3623070	0.5534364
C	1.0023098	-1.0578794	0.2388438
C	0.3442089	-1.9557468	1.3022329
H	-1.7988775	-2.0895642	1.8299283
H	-1.4169500	-2.5034104	0.1517352
H	-1.5743484	0.2733514	1.4164888
H	-2.1192658	-0.2381680	-0.1931185
H	1.9391978	-0.6176737	0.6090400
H	0.7145811	-2.9796714	1.2368749
H	0.5600288	-1.5605076	2.3011042
C	5.2262799	-2.6943453	0.7819748
H	5.6034952	-2.5576389	-0.2493365
O	4.3094081	-1.9819253	1.2060219
C	5.9013482	-3.7752183	1.5788903
H	6.9777827	-3.5715476	1.6554014
H	5.4679953	-3.8399590	2.5791856
H	5.7972477	-4.7417700	1.0682494
