31
-0.00411564 (energy)
C	0.1584986	-0.2077558	-0.4006208
O	-1.0656521	-0.1862145	-0.4266837
O	0.8331152	0.3287929	0.6873541
H	1.8033131	0.2108913	0.6330965
N	0.5220821	-1.9164600	-2.1740978
C	1.1275338	-3.3273188	-0.3031281
H	1.4554228	-2.5080856	0.3246065
H	1.1952084	-4.3170834	0.1286409
C	0.6123927	-3.1602082	-1.5447649
C	0.1047325	-4.3367827	-2.3479253
H	0.6050668	-4.4117790	-3.3215306
H	0.2804363	-5.2664382	-1.8031479
H	-0.9730056	-4.2581390	-2.5380214
C	-0.1625798	-0.1233999	-3.5707073
C	-0.1301617	-1.6615209	-3.4759575
C	1.0458640	-0.7108651	-1.5547440
C	1.0416326	0.3234219	-2.7151553
H	-0.0971683	0.2312125	-4.6033550
H	-1.0893763	0.2558583	-3.1304486
H	0.4492990	-2.1009657	-4.3017174
H	-1.1387063	-2.0865568	-3.5081788
H	2.0647876	-0.8937423	-1.1805413
H	0.9572621	1.3558325	-2.3631018
H	1.9780964	0.2298459	-3.2771119
C	4.6594420	-0.8228684	2.0553022
H	3.6180341	-1.0658486	2.3399300
O	4.8847963	0.0781611	1.2395979
C	5.7215262	-1.6515918	2.7218402
H	5.5672599	-2.7153031	2.4965248
H	6.7137385	-1.3449650	2.3840955
H	5.6538678	-1.5457076	3.8127225
