31
-0.00358737 (energy)
C	0.0016981	-0.3762300	-0.2953463
O	1.1541163	-0.1362753	0.0423554
O	-1.0352447	0.4080560	0.1907881
H	-1.9067966	0.1663506	-0.1835172
N	0.5003494	-1.8107421	-2.2678081
C	-0.2486158	0.1232856	-3.5152895
H	-0.9013043	0.4880857	-2.7319482
H	-0.2077377	0.7173286	-4.4186610
C	0.5240319	-0.9825474	-3.3923783
C	1.4701722	-1.4044212	-4.4941741
H	1.2715866	-2.4294284	-4.8315019
H	1.3667129	-0.7381279	-5.3528143
H	2.5154309	-1.3646634	-4.1629727
C	1.1154388	-3.3501804	-0.5689440
C	1.3983014	-2.9613929	-2.0334158
C	-0.4191625	-1.5737309	-1.1679312
C	-0.3385397	-2.8864975	-0.3393988
H	1.2465683	-4.4212692	-0.3901594
H	1.7876152	-2.8012389	0.0969827
H	1.1667480	-3.7902199	-2.7191232
H	2.4479080	-2.6860454	-2.1795863
H	-1.4344747	-1.4040189	-1.5578235
H	-0.5784681	-2.7366996	0.7174487
H	-1.0507214	-3.6105263	-0.7518255
C	4.0468548	0.8113000	3.7711908
H	4.1339538	1.8963105	3.9705623
O	4.1272171	0.0017720	4.7018994
C	3.8321585	0.4339799	2.3322283
H	4.6608701	0.8078266	1.7161743
H	3.7577927	-0.6505790	2.2284088
H	2.9163750	0.9049436	1.9509844
