31
-0.00616857 (energy)
C	0.8126771	0.8820770	2.2081706
O	-0.2309114	0.6683112	2.8122530
O	1.7273644	1.7941722	2.7162167
H	2.5488306	1.8488052	2.1867479
N	0.7880889	-1.1241440	0.7345505
C	2.5704007	-1.8729745	2.1906547
H	2.8995873	-0.8745232	2.4503397
H	3.1131743	-2.6893939	2.6483602
C	1.5148014	-2.1269482	1.3806141
C	1.0568803	-3.5426438	1.1100086
H	1.0460200	-3.7691963	0.0364993
H	1.7251889	-4.2531141	1.6004259
H	0.0433476	-3.7168603	1.4924229
C	-0.9509264	0.0936455	-0.3271270
C	-0.4356359	-1.3356306	-0.0673384
C	1.1658801	0.2751901	0.8372320
C	0.3254319	0.9597493	-0.2769258
H	-1.4775045	0.1788246	-1.2820354
H	-1.6324870	0.3935546	0.4742131
H	-0.2064032	-1.8555684	-1.0096138
H	-1.1725346	-1.9346322	0.4776694
H	2.2456455	0.3865412	0.6545179
H	0.1199057	2.0135085	-0.0664928
H	0.8761423	0.9016633	-1.2228964
C	3.8634660	4.8237271	0.7519685
H	4.9683052	4.7937839	0.8068923
O	3.2363006	3.8393057	0.3450407
C	3.2290970	6.1115325	1.1971777
H	3.6032202	6.9464812	0.5897738
H	2.1421334	6.0523873	1.1100637
H	3.5047596	6.3282520	2.2377814
