31
-0.0053929 (energy)
C	2.7219137	0.6057922	1.7486169
O	2.7153340	1.7815555	2.0909995
O	2.6271371	-0.3912585	2.7096521
H	2.5860409	-1.2908724	2.3260709
N	2.2135667	0.9355194	-0.6659115
C	0.0495884	0.0455550	-0.0472170
H	0.4261768	-0.5351562	0.7856460
H	-1.0166169	-0.0072592	-0.2234418
C	0.8283020	0.8414742	-0.8186286
C	0.2345551	1.6849946	-1.9245451
H	0.6985511	1.4695250	-2.8951874
H	-0.8365771	1.4917358	-2.0096361
H	0.3673846	2.7562233	-1.7279081
C	4.4504754	1.7294444	-0.6822545
C	3.0942796	1.8673182	-1.4016767
C	2.9291434	0.1208635	0.3014000
C	4.4183476	0.2974248	-0.1077685
H	5.2969717	1.8915770	-1.3557137
H	4.5121139	2.4539247	0.1350247
H	3.1732471	1.5834238	-2.4618341
H	2.7181477	2.8945393	-1.3547963
H	2.6090497	-0.9289774	0.2174295
H	5.1081041	0.1563811	0.7296527
H	4.6638369	-0.4405237	-0.8802213
C	0.7814234	-3.9400479	2.7269970
H	1.4741330	-3.5692192	3.5062417
O	0.9080468	-3.5650981	1.5559328
C	-0.2758992	-4.8957863	3.2041878
H	-0.8908443	-4.4215483	3.9807106
H	-0.9113335	-5.2089646	2.3730926
H	0.1912417	-5.7767731	3.6640303
