31
-0.0047236 (energy)
C	-0.5173172	-2.1273215	1.2334535
O	-1.7286276	-1.9510990	1.2703490
O	0.0770233	-3.0101624	2.1245386
H	1.0381249	-3.1181954	1.9737372
N	-0.0871130	-1.1698549	-1.0238160
C	0.2340693	-3.4878486	-1.6413667
H	0.5488911	-3.8010479	-0.6536934
H	0.1939067	-4.2605266	-2.3976695
C	-0.1411188	-2.2213640	-1.9417144
C	-0.6396902	-1.8578567	-3.3224396
H	-0.0493924	-1.0476909	-3.7685853
H	-0.5801536	-2.7250847	-3.9829580
H	-1.6853892	-1.5266013	-3.2974548
C	-0.5102721	0.8621716	0.1277696
C	-0.5866759	0.2008238	-1.2624196
C	0.4479082	-1.3551737	0.3143973
C	0.6275621	0.0977856	0.8368490
H	-0.3181416	1.9372436	0.0669744
H	-1.4504716	0.7063891	0.6647733
H	0.0437759	0.7303516	-1.9924172
H	-1.6120585	0.1917536	-1.6463004
H	1.4099002	-1.8877484	0.2632841
H	0.5746786	0.1661575	1.9274728
H	1.6080485	0.4704550	0.5186036
C	4.9011670	-1.8045713	0.2440459
H	5.0013215	-1.7776300	-0.8576918
O	4.0442495	-1.1128726	0.8055238
C	5.8587969	-2.7170701	0.9577468
H	6.8941897	-2.4251919	0.7368039
H	5.6894166	-2.6811777	2.0359856
H	5.7366963	-3.7477105	0.5990196
