31
-0.00295569 (energy)
C	-0.5238900	-0.8365423	-2.2955744
O	-1.7516887	-0.8576675	-2.1966197
O	0.1538880	-1.5780751	-3.2444434
H	-0.4790128	-2.0867948	-3.7975592
N	-0.0802703	1.2094000	-0.9779817
C	0.2803314	2.2245027	-3.1465538
H	0.6429790	1.3159602	-3.6113455
H	0.2406475	3.1048024	-3.7749680
C	-0.1243487	2.2955120	-1.8557532
C	-0.6545975	3.5854883	-1.2700631
H	-0.0822262	3.8966994	-0.3870445
H	-0.5960274	4.3853567	-2.0108950
H	-1.7034092	3.4876980	-0.9625774
C	-0.5054222	-0.2686304	0.8325408
C	-0.5888404	1.2121400	0.4089470
C	0.4467775	-0.0834878	-1.3894167
C	0.6270148	-0.8416694	-0.0456012
H	-0.3058925	-0.3831103	1.9020702
H	-1.4482312	-0.7752709	0.6030104
H	0.0330959	1.8475630	1.0573895
H	-1.6172362	1.5859196	0.4604088
H	1.3953642	0.0255341	-1.9247976
H	0.5764781	-1.9280546	-0.1623343
H	1.6101570	-0.5910992	0.3685825
C	4.2369688	1.3182098	-1.9859114
H	4.3818564	0.3377683	-2.4781765
O	3.6189110	1.3900643	-0.9178038
C	4.8336118	2.4961415	-2.7039447
H	4.4085243	2.5780021	-3.7132248
H	4.6438246	3.4178340	-2.1498323
H	5.9157230	2.3551992	-2.8263530
