31
-0.00289413 (energy)
C	-0.4153456	-0.1013267	-0.2392531
O	0.5345395	-0.0545586	-1.0223617
O	-0.2653945	0.1114550	1.1178928
H	0.6739240	0.3034933	1.3325981
N	-2.2582926	0.0708728	-1.8801743
C	-2.4233603	2.3494044	-1.0775420
H	-2.0832107	2.1162627	-0.0760744
H	-2.6700890	3.3847386	-1.2740486
C	-2.5353392	1.4278885	-2.0640731
C	-2.9835565	1.8187229	-3.4549668
H	-3.8703077	1.2543040	-3.7700649
H	-3.2306451	2.8818062	-3.4841694
H	-2.1975596	1.6353478	-4.1984039
C	-1.6862329	-2.2037268	-2.2573534
C	-2.2811803	-0.9560779	-2.9418101
C	-1.8591057	-0.4577625	-0.5840988
C	-2.0064571	-1.9938993	-0.7622449
H	-2.1085723	-3.1331565	-2.6505462
H	-0.6021170	-2.2290416	-2.4067170
H	-3.3084867	-1.1439033	-3.2888088
H	-1.6848056	-0.6525766	-3.8090943
H	-2.5025552	-0.0779585	0.2159367
H	-1.3515069	-2.5621946	-0.0955411
H	-3.0420831	-2.2744195	-0.5393338
C	3.5027021	-0.4047900	-2.2466014
H	3.6568000	-1.4912202	-2.1034016
O	3.9327074	0.3976491	-1.4104202
C	2.7576314	-0.0166388	-3.4929106
H	1.7644567	-0.4852474	-3.5004553
H	2.6519204	1.0686362	-3.5527444
H	3.2886866	-0.3852796	-4.3805466
