31
-0.00182109 (energy)
C	2.6828068	-1.6002783	-1.0714593
O	3.4177353	-1.7547855	-0.0948654
O	2.0937476	-2.6636437	-1.7286272
H	2.3428468	-3.5116874	-1.2995959
N	2.2158202	0.8143532	-0.8064926
C	0.0627954	0.0526911	-0.0018017
H	0.0485048	-0.8395349	-0.6155790
H	-0.7961994	0.2121504	0.6370312
C	1.0863755	0.9399300	0.0063112
C	1.0663507	2.1519443	0.9112178
H	1.1707996	3.0851398	0.3433979
H	0.1239744	2.1936094	1.4609839
H	1.8824778	2.1215968	1.6441106
C	4.4160885	0.9936607	-1.6839824
C	3.3944230	1.7042866	-0.7727843
C	2.3530864	-0.2777423	-1.7589119
C	3.5394555	0.1739307	-2.6542803
H	5.0695560	1.7003660	-2.2039425
H	5.0420441	0.3216136	-1.0883399
H	3.1460125	2.7049582	-1.1574833
H	3.7807518	1.8231292	0.2453434
H	1.4357068	-0.4169142	-2.3397569
H	4.0693699	-0.6669666	-3.1108939
H	3.1491344	0.8058074	-3.4600615
C	7.7050013	-3.2415879	0.9380252
H	8.5573687	-2.5385751	0.9998780
O	7.9086394	-4.4599703	0.8923302
C	6.3433049	-2.6056847	0.9159295
H	6.2591073	-1.9233096	0.0595873
H	5.5655194	-3.3697710	0.8542980
H	6.1947982	-1.9998465	1.8196547
