31
-0.00419944 (energy)
C	0.1741293	0.3824427	-0.2508628
O	1.0965073	-0.2839253	0.2245476
O	-1.1503777	0.0469925	-0.0640254
H	-1.2183660	-0.7933855	0.4393774
N	-0.5155221	1.7645757	-2.2198894
C	0.5606507	-0.0971825	-3.3338668
H	1.2789730	-0.2762969	-2.5442273
H	0.6278289	-0.7421863	-4.2005473
C	-1.3634202	1.0601527	-4.4257995
H	-1.2517128	2.0437564	-4.9003954
H	-1.1960182	0.2988839	-5.1903209
H	-2.4030709	0.9760301	-4.0852147
C	-0.9267456	3.7884067	-1.1044092
C	-1.5725870	2.7769711	-2.0656545
C	0.3369767	1.6789146	-1.0365258
C	-0.0878511	2.9009929	-0.1573603
H	-0.2772960	4.4692164	-1.6664216
H	-1.6654549	4.3883238	-0.5643597
H	-1.8292037	3.2268642	-3.0274307
H	-2.4895551	2.3484083	-1.6306944
H	1.3958031	1.7261543	-1.3185043
H	-0.7048887	2.5608305	0.6806856
H	0.7833782	3.4170982	0.2536305
C	-0.3846689	0.8719749	-3.2871846
C	4.0026608	2.8555000	1.7487648
H	4.2094981	2.8799625	2.8355963
O	3.7554448	3.9032588	1.1412305
C	4.0485866	1.4944285	1.1127985
H	3.3194084	0.8284133	1.5931836
H	3.8337719	1.5642552	0.0443625
H	5.0377086	1.0413187	1.2616021
