31
-0.00390218 (energy)
C	-0.3184417	0.3421452	0.0615735
O	0.2568520	0.5133434	-1.0118075
O	0.0156824	-0.7191844	0.8597063
H	-0.5336870	-0.8070193	1.6808101
N	-1.3624718	1.5497696	2.0134484
C	-2.3532997	-0.5516642	2.7133186
H	-2.6398178	-0.8692268	1.7171669
H	-2.6584384	-1.1976639	3.5253138
C	-1.5325944	1.0693268	4.4243130
H	-2.1488372	1.9337674	4.7015714
H	-1.7876011	0.2499564	5.0986255
H	-0.4847417	1.3414692	4.5951426
C	-1.3745621	3.6980157	1.0404470
C	-0.8363735	2.9100279	2.2479095
C	-1.4478967	1.2756868	0.5651017
C	-1.3668374	2.6702902	-0.1170137
H	-2.3957243	4.0357892	1.2509549
H	-0.7671315	4.5798202	0.8158779
H	-1.1896701	3.3088382	3.2000188
H	0.2644020	2.9130065	2.2637479
H	-2.4045176	0.7807337	0.3438178
H	-0.4481895	2.7262226	-0.7060053
H	-2.2015103	2.8239535	-0.8056338
C	-1.7793463	0.6559331	2.9890785
C	2.9902098	-0.5745101	-1.9680962
H	2.7716158	-1.6339440	-1.7348598
O	3.5682535	0.1362403	-1.1382098
C	2.5397252	-0.1049644	-3.3229647
H	1.4547967	-0.2392193	-3.4276189
H	2.7950593	0.9469484	-3.4673974
H	3.0111634	-0.7104556	-4.1084198
