31
-0.0068891 (energy)
C	0.9076418	-0.7988059	-2.4165923
O	-0.0709894	-0.5604032	-3.1117546
O	1.9165892	-1.6176023	-2.9011251
H	2.6702667	-1.7028379	-2.2823391
N	0.7505457	1.1028423	-0.8119186
C	2.6149413	1.8418402	-2.1678142
H	2.9514332	0.8440512	-2.4171916
H	3.1871047	2.6566729	-2.5911766
C	1.5218228	2.1016317	-1.4115221
C	1.0781541	3.5241501	-1.1504664
H	1.1235229	3.7776761	-0.0834420
H	1.7246240	4.2203921	-1.6880907
H	0.0473935	3.6918889	-1.4861055
C	-0.5224779	0.0603507	0.8664007
C	-0.4775015	1.3127594	-0.0238837
C	1.0724238	-0.3108743	-0.9641100
C	0.0403952	-1.0469823	-0.0506417
H	0.1232324	0.2022226	1.7407022
H	-1.5318440	-0.1696005	1.2200920
H	-0.4168898	2.2334486	0.5606531
H	-1.3669545	1.3723743	-0.6692096
H	2.1086975	-0.4907077	-0.6321626
H	-0.7613935	-1.4596776	-0.6717744
H	0.5015910	-1.8696798	0.5024688
C	3.7576499	-4.5881756	-0.6866915
H	4.8624891	-4.5582324	-0.7416154
O	3.1304845	-3.6037542	-0.2797637
C	3.1232809	-5.8759810	-1.1319008
H	3.4974041	-6.7109297	-0.5244970
H	2.0363173	-5.8168358	-1.0447868
H	3.3989435	-6.0927003	-2.1725045
