31
-0.00339153 (energy)
C	-0.1696689	0.7338360	-2.5950954
O	1.0012523	0.6250671	-2.9340915
O	-1.0578245	1.4382230	-3.3939652
H	-1.9748943	1.4227002	-3.0520107
N	-0.3153285	-1.1671225	-0.9885266
C	-1.5450645	-2.0927194	-2.8570987
H	-1.8978342	-1.1364980	-3.2206821
H	-1.8513388	-2.9605285	-3.4260122
C	-0.7305469	-2.2374663	-1.7847243
C	-0.2311333	-3.6031098	-1.3674062
H	-0.5870442	-3.8808360	-0.3668711
H	-0.5843823	-4.3596423	-2.0706771
H	0.8649589	-3.6425837	-1.3506403
C	0.2195725	-0.0155995	0.9893534
C	0.6099444	-1.2471784	0.1562987
C	-0.7342551	0.2019182	-1.2634644
C	-0.1441568	1.0358524	-0.0812208
H	-0.6515960	-0.2489504	1.6123184
H	1.0274930	0.3239475	1.6441567
H	0.4728217	-2.1797924	0.7080723
H	1.6601342	-1.1898185	-0.1676416
H	-1.8357561	0.2528280	-1.2857317
H	0.7606302	1.5514668	-0.4195855
H	-0.8515428	1.7880758	0.2782637
C	4.7475740	1.0981299	-0.5409446
H	4.1870550	1.9716964	-0.9247191
O	4.1395057	0.1033479	-0.1302456
C	6.2446417	1.2295631	-0.5652689
H	6.5571477	2.0979413	0.0299674
H	6.7141883	0.3259618	-0.1707980
H	6.5914009	1.4077102	-1.5918336
