31
-0.00317949 (energy)
C	-1.5361395	-0.5682606	-2.1492274
O	-0.8678356	-1.4492224	-2.6737097
O	-2.5441847	0.0555242	-2.8688882
H	-3.0435653	0.7099129	-2.3391851
N	-1.0952358	-1.0848599	0.2496582
C	-3.3694174	-1.8905423	0.0508719
H	-3.6490455	-1.1924046	-0.7272093
H	-4.1384585	-2.5820657	0.3685672
C	-2.1295442	-1.9596752	0.5915314
C	-1.7951334	-3.0003997	1.6372908
H	-1.5244880	-2.5431424	2.5977811
H	-2.6568503	-3.6490246	1.8059494
H	-0.9540292	-3.6304802	1.3229666
C	0.7623647	0.3144803	0.5892179
C	0.2874649	-1.1377973	0.7580874
C	-1.2812423	-0.0221611	-0.7308699
C	0.0682387	0.7652313	-0.7142359
H	0.4199947	0.9186737	1.4372777
H	1.8514320	0.3975431	0.5273462
H	0.3106749	-1.4616417	1.8009737
H	0.9089001	-1.8289906	0.1688537
H	-2.1272987	0.6164096	-0.4262253
H	0.6703216	0.4677415	-1.5790967
H	-0.0911401	1.8457507	-0.7646364
C	4.6362421	-1.3900063	2.8107905
H	5.6712527	-1.2502397	2.4450018
O	3.6829110	-0.9576596	2.1533345
C	4.5061024	-2.1194785	4.1184647
H	5.0549579	-1.5849169	4.9052610
H	3.4554915	-2.2118734	4.4017607
H	4.9565202	-3.1178924	4.0403176
