31
-0.00209107 (energy)
C	2.3931765	-0.2458343	-3.1004490
O	1.6484921	-1.0105936	-3.6991092
O	2.9885376	0.8089958	-3.7757661
H	3.5257189	1.3823917	-3.1919474
N	1.6585574	-0.6969896	-0.7610652
C	0.6545928	1.4778262	-1.1114555
H	1.4035796	1.8149663	-1.8159795
H	-0.1422690	2.1764187	-0.8934212
C	0.6509957	0.2468371	-0.5466276
C	-0.4610843	-0.1757044	0.3878707
H	-0.0892035	-0.3811677	1.3999796
H	-1.2082211	0.6169590	0.4598945
H	-0.9638180	-1.0827563	0.0304170
C	3.1915571	-2.3936566	-0.2175888
C	1.6890061	-2.0688889	-0.2224288
C	2.8000523	-0.4186479	-1.6241284
C	3.7129077	-1.6788611	-1.4829899
H	3.6593501	-1.9761865	0.6815001
H	3.3906122	-3.4691623	-0.2390261
H	1.2544962	-2.1077640	0.7789281
H	1.1344330	-2.7684892	-0.8659614
H	3.3117620	0.4940433	-1.2755023
H	3.5764291	-2.3231370	-2.3577873
H	4.7706168	-1.4093323	-1.4191948
C	-2.2705627	-0.8287274	3.7497970
H	-2.4532058	0.2163900	3.4352276
O	-1.1135936	-1.2510885	3.8548961
C	-3.5021193	-1.6456529	4.0236201
H	-4.1351723	-1.6864476	3.1271678
H	-3.2292940	-2.6586954	4.3267505
H	-4.1010437	-1.1727641	4.8132269
