31
-0.00418913 (energy)
C	-0.3602658	0.7837700	-2.4238359
O	-1.2598948	1.4897372	-2.8742449
O	0.9371576	0.8853905	-2.8497639
H	1.4685258	0.2234087	-2.3328532
N	0.6528601	-1.0265975	-1.0259188
C	1.7106008	-3.2126166	-1.0181722
H	2.1800525	-3.0653179	-0.0542120
H	1.9293761	-4.1446124	-1.5238427
C	0.9093055	-2.2993234	-1.6048756
C	0.2861534	-2.5455344	-2.9618194
H	0.5172018	-1.7364856	-3.6652435
H	0.6663530	-3.4787357	-3.3822575
H	-0.8065572	-2.6298398	-2.9077957
C	0.4208100	0.5628016	0.7328299
C	1.1270448	-0.7479314	0.3549890
C	-0.5926937	-0.2593864	-1.3161181
C	-0.9447459	0.4333567	0.0275808
H	0.3282879	0.6845927	1.8155082
H	0.9743784	1.4258996	0.3437356
H	0.8301481	-1.5664697	1.0292761
H	2.2190995	-0.6764438	0.3758453
H	-1.4107578	-0.9048031	-1.6464619
H	-1.4540074	1.3858787	-0.1348593
H	-1.6111602	-0.2157809	0.6068761
C	2.9444312	3.6138861	-4.2784972
H	2.8442767	2.5335646	-4.0606503
O	3.8013487	4.2869462	-3.6948066
C	1.9868014	4.1582904	-5.3010661
H	0.9514086	3.9913883	-4.9752559
H	2.1561817	5.2263809	-5.4529533
H	2.1089021	3.6260441	-6.2537563
