31
-0.00109582 (energy)
C	0.4875395	-3.6163303	3.1105099
O	1.0018283	-4.6138377	3.6115850
O	-0.8582495	-3.5221477	2.8759243
H	-1.0252626	-2.6258087	2.4803845
N	0.4312613	-1.3445995	2.0645183
C	0.0213663	-0.0687044	0.0392695
H	-0.1649963	0.8560676	0.5697097
H	-0.0894083	-0.0380160	-1.0372846
C	0.3517718	-1.2254158	0.6502118
C	0.5894024	-2.4974883	-0.1343889
H	-0.0380951	-3.3199069	0.2297857
H	0.3554150	-2.3340241	-1.1882931
H	1.6328636	-2.8320328	-0.0768456
C	0.7540883	-0.5942585	4.3019286
C	0.3294787	-0.1217378	2.9033639
C	1.2954035	-2.3633572	2.7275596
C	1.8369079	-1.6487457	3.9946285
H	1.1265419	0.2273765	4.9198122
H	-0.0917051	-1.0534412	4.8278138
H	1.0114582	0.6551959	2.5237670
H	-0.6880533	0.2802523	2.8692839
H	2.1170768	-2.6921871	2.0859659
H	2.0132360	-2.3559574	4.8081346
H	2.7875858	-1.1583351	3.7563433
C	2.4756799	4.0593262	0.9322562
H	3.3160243	4.6485996	1.3459722
O	1.3111688	4.3456517	1.2321626
C	2.8654662	2.9332616	0.0162195
H	3.5228538	2.2285252	0.5427507
H	1.9779270	2.4085196	-0.3436370
H	3.4363123	3.3215407	-0.8377052
