31
-0.00236069 (energy)
C	4.0997781	2.1076168	-0.0415173
O	5.1469135	2.3865024	0.5354574
O	3.1682528	3.0652111	-0.3631430
H	2.3853516	2.6207816	-0.7721939
N	2.3142729	0.5153090	-0.7921117
C	0.0787826	0.0189730	0.0121221
H	-0.3195011	-0.1547119	-0.9794432
H	-0.6185493	-0.0711961	0.8351077
C	1.3619755	0.3674094	0.2506948
C	1.8446498	0.6596478	1.6552398
H	2.1709865	1.7002758	1.7685552
H	1.0328740	0.4891398	2.3650303
H	2.6845618	0.0176457	1.9469294
C	3.4660676	-0.5371866	-2.6118071
C	2.0675169	-0.1308609	-2.1106023
C	3.7623465	0.7005187	-0.5384560
C	4.4104638	0.4712436	-1.9328640
H	3.7007690	-1.5559744	-2.2811884
H	3.5430579	-0.5141292	-3.7026751
H	1.4111663	-0.9979003	-1.9780851
H	1.5689404	0.5639950	-2.7989968
H	4.1618389	-0.0136355	0.1908942
H	4.4264110	1.4145712	-2.4922535
H	5.4401281	0.1198946	-1.8388494
C	3.2241455	-3.9569252	1.8171212
H	3.1283180	-4.3379612	0.7826109
O	3.1060634	-2.7478565	2.0456419
C	3.4980201	-4.9977814	2.8662584
H	4.4287186	-5.5324021	2.6338193
H	3.5768917	-4.5351479	3.8523245
H	2.6954022	-5.7471605	2.8732431
