31
-0.00177659 (energy)
C	4.0447259	1.1820915	0.1802948
O	4.4774655	1.9456255	1.0487178
O	3.7921336	1.6056266	-1.1086815
H	3.9739846	2.5667687	-1.1950679
C	0.0000000	0.0000000	0.0000000
H	-0.1549589	-0.3055097	-1.0273534
H	-0.8672710	0.3654631	0.5353420
C	1.2028685	-0.0625249	0.6147004
C	1.3870137	0.4103881	2.0424205
H	2.1102125	1.2301709	2.1245902
H	0.4347471	0.7648073	2.4427245
H	1.7452184	-0.4051832	2.6840302
C	3.5930521	-2.1372666	-1.2657128
C	2.2752343	-1.3461563	-1.2684414
N	2.3345470	-0.6249863	0.0079438
C	3.7187628	-0.2934246	0.3777486
C	4.5942948	-1.1934481	-0.5560630
H	3.4658212	-3.0612314	-0.6909431
H	3.9258398	-2.4063007	-2.2726237
H	1.3915116	-1.9918851	-1.2806392
H	2.2128834	-0.6611736	-2.1288361
H	3.9054710	-0.5003133	1.4353703
H	5.1137250	-0.5724257	-1.2912130
H	5.3493431	-1.7367697	0.0182137
C	7.5667594	0.4047903	4.1365559
H	7.6810248	1.4912206	4.3131789
O	8.3155676	-0.3976486	4.7052300
C	6.4687648	0.0166388	3.1863853
H	6.6337976	0.4852472	2.2069890
H	6.4281966	-1.0686362	3.0718904
H	5.5023971	0.3852795	3.5552361
