31
-0.00344613 (energy)
C	0.2650263	-0.3142868	0.2716384
O	0.9506230	0.1793215	-0.6287775
O	-1.0651976	0.0134689	0.4392757
H	-1.3372399	0.6824367	-0.2268199
N	0.5138615	-0.9068930	2.6867482
C	-1.1871610	-2.5124761	2.1775855
C	-0.6909923	-1.5280313	3.2609158
C	0.8318602	0.5630624	4.5740068
H	-0.0628160	0.2281631	5.0828458
H	1.4308710	1.3073305	5.0829650
C	1.2205570	0.0903494	3.3664401
C	2.4866092	0.5870233	2.7001516
H	2.3011579	0.9958749	1.6998361
H	2.9403105	1.3737694	3.3061537
H	3.2234180	-0.2197279	2.5895320
C	0.7611058	-1.3219878	1.3052677
C	0.0123259	-2.6765278	1.2155254
H	-1.4989834	-3.4701685	2.6049261
H	-2.0391551	-2.0843836	1.6436448
H	-0.4281828	-2.0317634	4.2020965
H	-1.4514102	-0.7699955	3.4933372
H	1.8285715	-1.4406573	1.1059127
H	-0.2909483	-2.9249435	0.1941579
H	0.6892065	-3.4629013	1.5674272
C	1.4424807	-1.5995984	-4.4294668
H	0.6626722	-0.8193954	-4.5175853
O	1.2354949	-2.7353684	-4.8712763
C	2.7144996	-1.1684343	-3.7548236
H	2.5007332	-0.8122836	-2.7382078
H	3.4242997	-1.9972322	-3.7117590
H	3.1631423	-0.3260530	-4.2978953
