31
-0.0040397 (energy)
C	-0.9907832	-2.5027387	-0.1941111
O	0.0033555	-3.0945995	-0.5950359
O	-2.2271279	-3.1330996	-0.2302635
H	-2.9491517	-2.5819045	0.1342320
N	0.0717787	-0.8245122	1.3229498
C	1.3428375	-1.5603875	3.2421107
H	2.2679610	-1.1187690	2.8941208
H	1.3727163	-2.0568264	4.2035729
C	0.1944908	-1.5263914	2.5299890
C	-1.0650685	-2.1966807	3.0376897
H	-1.4092522	-3.0007294	2.3752357
H	-0.8801610	-2.6418026	4.0173553
H	-1.8864663	-1.4751888	3.1440596
C	0.3961901	0.9054996	-0.2313466
C	1.1323388	0.0576240	0.8159489
C	-0.9810462	-1.0559241	0.3300432
C	-0.6170366	-0.0864054	-0.8419151
H	-0.1232758	1.7362588	0.2596620
H	1.0679600	1.3224654	-0.9873343
H	1.5355837	0.6554775	1.6399623
H	1.9613051	-0.5134209	0.3698017
H	-1.9695650	-0.8099920	0.7481567
H	-0.1391158	-0.6591596	-1.6430870
H	-1.5047269	0.4021454	-1.2531504
C	5.0142105	-2.2671563	0.8415324
H	4.8601126	-2.6863569	-0.1709436
O	4.5842052	-1.1417825	1.1183743
C	5.7592810	-3.1524161	1.8008359
H	6.7524557	-3.3932544	1.3987815
H	5.8649920	-2.6615961	2.7706285
H	5.2282257	-4.1054518	1.9254017
