11
-0.00643457 (energy)
C	0.0605724	-0.0251217	0.0524191
H	-0.7212257	0.2991194	-0.6241454
C	-0.1666962	-0.5929476	1.2372521
H	-1.1846029	-0.7560566	1.5775977
H	0.6361972	-0.9075592	1.8937309
O	1.3009779	0.2207207	-0.4605612
H	1.9685832	-0.0850717	0.1775493
C	3.8053291	0.9740357	-1.1573270
H	4.5846401	1.7421103	-1.2856513
H	3.0062780	0.9770292	-1.9157888
O	3.8258852	0.1705889	-0.2333196
