11
-0.000395462 (energy)
C	0.0542719	-0.0355649	-0.0532689
H	-0.6462067	0.4234658	0.6342634
C	-0.1493573	-1.2092059	-0.6524421
H	-1.0613857	-1.7669878	-0.4636106
H	0.5700238	-1.6443470	-1.3363469
O	1.1656554	0.7370872	-0.2265565
H	1.7638269	0.2879878	-0.8485626
C	3.2246093	0.3421947	1.3493477
H	2.1656077	0.6404135	1.4069023
H	3.7558435	0.2886524	2.3130278
O	3.7745464	0.0872409	0.2852488
