11
-4.9552e-05 (energy)
C	0.0267802	-0.0623655	-0.0494090
H	-0.3188667	0.7425754	0.5883045
C	-0.7139099	-1.1195381	-0.3835808
H	-1.7298826	-1.2128762	-0.0125537
H	-0.3411668	-1.9103649	-1.0240793
O	1.3103544	0.1431910	-0.4645918
H	1.5775487	-0.6005986	-1.0318440
C	4.2298171	1.4182863	-0.2405197
H	4.5812626	2.1399751	0.5140548
H	4.2036666	1.7901726	-1.2772321
O	3.8908649	0.2787977	0.0534465
