11
0.000480323 (energy)
C	-0.0052506	-0.0761450	-0.0349607
H	0.0625185	0.9066454	0.4162714
C	-0.1404160	-0.2877788	-1.3444828
H	-0.1890792	0.5521870	-2.0305317
H	-0.2057187	-1.2832848	-1.7679047
O	0.0650631	-1.0643489	0.9034965
H	0.0004086	-1.9253175	0.4552288
C	3.1051266	-1.0071718	0.6298373
H	3.5369387	-1.9106497	0.1704928
H	2.9167742	-1.0692086	1.7135488
O	2.8514431	-0.0011154	-0.0207272
