11
0.00050349 (energy)
C	1.3803888	-0.2426358	-0.1897677
H	2.1665970	0.3446898	0.2695856
C	0.0786694	-0.0151114	-0.0118190
H	-0.2504214	0.7997915	0.6255242
H	-0.6862815	-0.6198629	-0.4847973
O	1.8902322	-1.2397016	-0.9695833
H	1.1520011	-1.7387696	-1.3598870
C	4.9919494	1.1188158	0.3843710
H	5.7787033	0.8333715	-0.3320584
H	5.3239025	1.2504024	1.4266032
O	3.8262741	1.2791386	0.0449058
