11
0.000549512 (energy)
C	-0.0250696	0.0752683	0.0274605
H	0.2984989	-0.8962070	-0.3269676
C	-0.9619260	0.8127764	-0.5694384
H	-1.4519561	0.4495013	-1.4674782
H	-1.2656107	1.7821594	-0.1917415
O	0.6453822	0.4454226	1.1569176
H	0.3240456	1.3195695	1.4379888
C	3.3800712	1.0709589	0.6018357
H	3.3629370	2.0412860	0.0803926
H	3.4837314	1.1224800	1.6974434
O	3.2899115	0.0062043	0.0035819
