11
0.000854972 (energy)
C	-0.0819989	0.0128133	0.0126446
H	0.9763465	-0.1525658	-0.1505574
C	-0.5733765	0.8950853	0.8833057
H	0.0982568	1.5021763	1.4824075
H	-1.6381025	1.0391035	1.0254323
O	-0.8436207	-0.7931354	-0.7826992
H	-1.7822908	-0.6112764	-0.6032092
C	3.3957468	0.9618573	-0.5211510
H	4.2673586	0.8772441	-1.1896305
H	3.0178795	1.9842298	-0.3607555
O	2.8812618	-0.0152605	0.0082684
