11
0.000962335 (energy)
C	-0.0250696	-0.0728626	0.0333234
H	0.2984989	0.8675621	-0.3967754
C	-0.9619260	-0.1785357	0.9762123
H	-1.4519561	0.7108244	1.3602471
H	-1.2656107	-1.1338153	1.3882794
O	0.6453822	-1.1296685	-0.5105964
H	0.3240456	-1.9492907	-0.0966482
C	3.2700793	-0.4009651	-1.2217772
H	3.8030708	-0.1925816	-2.1631738
H	2.3868635	-1.0534922	-1.3106254
O	3.6349952	0.0618146	-0.1482735
