11
0.00184612 (energy)
C	-0.0373155	0.0670283	0.0340975
H	0.4443088	-0.7980948	-0.4059935
C	-1.1737827	0.5982320	-0.4177558
H	-1.6750927	0.1637278	-1.2770974
H	-1.6329733	1.4649776	0.0431985
O	0.6643437	0.5408501	1.1043126
H	0.1973056	1.3138174	1.4659588
C	3.3796462	-0.5906232	1.0033803
H	3.4423279	-1.6895432	1.0500381
H	3.6813190	-0.0585162	1.9196835
O	3.0000000	-0.0000000	0.0000000
