11
0.00234178 (energy)
C	1.0927433	-0.3668422	-0.8195706
H	2.1214504	-0.0963225	-0.6130253
C	0.0615574	-0.0217546	-0.0478992
H	0.2250339	0.5660003	0.8500948
H	-0.9579873	-0.3069714	-0.2797668
O	0.9881268	-1.1020178	-1.9644571
H	0.0515593	-1.3213976	-2.1097320
C	3.3845472	-0.3303500	1.5975541
H	3.1691596	-1.3958799	1.7763995
H	3.3203540	0.3221445	2.4829275
O	3.6758688	0.1000398	0.4886649
