11
0.00487162 (energy)
C	0.4357688	0.6344691	-1.1504457
H	0.6566392	1.6863141	-1.0129014
C	0.5646978	-0.0090503	-2.3111207
H	0.9094865	0.5212984	-3.1934046
H	0.3360684	-1.0629297	-2.4190536
O	0.0110130	0.0556989	0.0100717
H	-0.1747850	-0.8839811	-0.1598450
C	3.6592878	-0.0857029	0.5044844
H	4.4460418	0.4045331	1.0998146
H	3.9912410	-0.5287112	-0.4480421
O	2.4936125	-0.1349239	0.8766635
