11
-0.00222628 (energy)
C	0.1617899	0.1050247	-1.4011249
H	-0.6382150	0.3632144	-2.0847990
C	0.0107988	0.0056343	-0.0800535
H	-0.9587064	0.1875906	0.3732956
H	0.8301271	-0.2546774	0.5798871
O	1.3374133	-0.1043003	-2.0616442
H	2.0241340	-0.3323823	-1.4114256
C	3.9911267	0.1845122	0.4699435
H	3.9467414	-0.7093121	1.1124693
H	4.9886797	0.6378627	0.3554132
O	2.9979535	0.6434882	-0.0802265
