11
-0.00173319 (energy)
C	-0.0785972	0.0264332	-0.0131013
H	0.9358434	-0.3147362	0.1559953
C	-1.1652097	-0.6659601	0.3300767
H	-1.0656385	-1.6345600	0.8101534
H	-2.1686802	-0.2991220	0.1482541
O	-0.1016932	1.2489384	-0.6190227
H	-1.0283206	1.5143488	-0.7505899
C	3.3112858	0.8470685	-0.7190399
H	3.1639660	0.8401758	-1.8108186
H	3.9248023	1.6743492	-0.3279390
O	2.8255224	-0.0077516	0.0110665
