11
-0.00478847 (energy)
C	0.0605724	0.0565962	-0.0132562
H	-0.7212257	-0.6738818	0.1578390
C	-0.1666962	1.3358448	-0.3128871
H	-1.1846029	1.7033113	-0.3989569
H	0.6361972	2.0446344	-0.4789056
O	1.3009779	-0.4972611	0.1164717
H	1.9685832	0.1916864	-0.0449143
C	5.0273682	-0.4392607	-0.2062459
H	5.8141222	0.3042997	-0.4108610
H	5.3593214	-1.4896490	-0.1905126
O	3.8616929	-0.1195678	-0.0094303
