11
0.00217818 (energy)
C	0.0589763	-0.0319986	0.0504556
H	-0.7022205	0.3810024	-0.6007662
C	-0.1623036	-0.4110696	1.3095215
H	-1.1533873	-0.3145644	1.7419722
H	0.6194333	-0.8213587	1.9381175
O	1.2666954	-0.1141057	-0.5795173
H	1.9167126	-0.4885735	0.0398716
C	3.4786791	0.9247776	1.0014827
H	3.7758428	1.9855534	0.9880750
H	2.9523624	0.5905882	1.9098131
O	3.7174426	0.1676766	0.0689974
