11
0.00264114 (energy)
C	0.0126535	-1.0017586	-0.9551389
H	0.0261550	-0.6341384	-1.9743313
C	0.0083286	-2.2945481	-0.6286684
H	0.0186153	-3.0531829	-1.4051614
H	-0.0053113	-2.6332414	0.4007409
O	0.0007058	0.0222324	-0.0532007
H	-0.0112017	-0.3528448	0.8443328
C	2.5513216	0.9948465	0.1521510
H	2.3486705	1.3885508	1.1609427
H	2.6782366	1.7532189	-0.6368483
O	2.6302425	-0.2055923	-0.0768842
