11
0.00266025 (energy)
C	0.0004946	0.0383254	0.0746914
H	-0.0058893	-0.4563338	-0.8893375
C	-0.0082262	-0.6045565	1.2428238
H	-0.0226064	-1.6897907	1.2679970
H	-0.0014827	-0.0826981	2.1926664
O	0.0185071	1.3962653	-0.0589792
H	0.0236410	1.7968669	0.8275212
C	3.7290168	0.8369658	-0.1597833
H	4.7921559	0.6337973	0.0456167
H	3.5031486	1.8464536	-0.5388267
O	2.8565852	-0.0031937	0.0211423
