11
0.00304079 (energy)
C	-0.0189015	-0.0757129	-0.0309542
H	0.2250574	0.9015011	0.3685664
C	-0.5945619	-0.2739011	-1.2172270
H	-0.8484931	0.5721231	-1.8483654
H	-0.8271611	-1.2640984	-1.5913790
O	0.3365146	-1.0723710	0.8307564
H	0.0999233	-1.9279190	0.4326946
C	3.4826315	-0.0889358	0.0399378
H	3.6492421	0.3857334	-0.9401955
H	3.8886115	0.4565087	0.9067864
O	2.8860028	-1.1518730	0.1579951
