11
0.00338791 (energy)
C	-0.0011119	0.0202834	0.0814569
H	0.0132395	-0.2415116	-0.9698934
C	-0.0111939	-0.8721247	1.0721196
H	-0.0051082	-1.9345864	0.8491581
H	-0.0255401	-0.5806097	2.1158609
O	-0.0075134	1.3730308	0.2609744
H	-0.0204090	1.5609213	1.2153966
C	3.2622516	0.0726244	1.1491398
H	2.8519364	-0.5597339	1.9525673
H	4.0630737	0.7657101	1.4525734
O	2.8553631	0.0093577	-0.0041936
