11
0.00357604 (energy)
C	-0.0798381	-0.0244338	-0.0087605
H	0.9506188	0.2909290	0.1043101
C	-0.5582674	-1.1848045	0.4412969
H	0.0956676	-1.8809933	0.9573046
H	-1.5949361	-1.4739284	0.3135938
O	-0.8213906	0.9129653	-0.6672253
H	-1.7353218	0.5889543	-0.7455682
C	2.9152773	-0.9968783	-0.6697769
H	3.3359984	-0.9956178	-1.6879731
H	2.5605073	-1.9736013	-0.3038448
O	2.8465528	0.0195262	0.0098832
