11
0.00362951 (energy)
C	0.0005794	0.0108032	0.0832516
H	-0.0068987	-0.1286319	-0.9912631
C	0.0182240	-0.9893207	0.9649247
H	0.0260071	-2.0191318	0.6214101
H	0.0253507	-0.8194905	2.0352936
O	-0.0103134	1.3339522	0.4169447
H	-0.0030794	1.4110947	1.3866806
C	2.9934427	0.8527250	-0.6928379
H	1.9147112	0.7695942	-0.4850904
H	3.2883344	1.6910230	-1.3440301
O	3.8102013	0.0658648	-0.2307826
