11
0.00425725 (energy)
C	-0.4185378	-0.2386903	1.2976224
H	0.2401591	0.1740166	2.0525208
C	-1.5336148	-0.9167928	1.5709109
H	-1.8309696	-1.0849349	2.6013876
H	-2.1738210	-1.3184883	0.7941488
O	0.0367240	0.0229575	0.0380708
H	-0.5828371	-0.3643519	-0.6042113
C	2.6524612	-0.0375322	0.0685994
H	3.0899071	-0.8193090	0.7098461
H	2.4373836	0.9207195	0.5678501
O	2.4207540	-0.2213993	-1.1197791
