11
0.00461731 (energy)
C	0.0256078	0.0378364	0.0704310
H	-0.3049074	-0.4505114	-0.8386103
C	0.3796369	-0.6119089	1.1796654
H	0.3471956	-1.6966148	1.2102371
H	0.7065750	-0.0962908	2.0751162
O	0.0331336	1.3957509	-0.0644933
H	0.3350216	1.7905834	0.7717853
C	3.3406575	0.0265449	0.0595258
H	2.3250705	-0.2709751	0.3657874
H	3.5806979	-0.1297696	-1.0042892
O	4.1487727	0.4994355	0.8488694
