11
0.000629272 (energy)
C	-0.2999965	0.9050309	1.0446426
H	-1.2524926	0.9397881	1.5600290
C	-0.0157143	0.0524289	0.0596756
H	-0.7598016	-0.6649380	-0.2724277
H	0.9469092	0.0406757	-0.4381200
O	0.5668312	1.8405514	1.5300336
H	1.4047261	1.7731664	1.0403579
C	3.4703263	-0.0504841	-0.2792135
H	4.4559499	0.2228768	0.1301168
H	3.2312419	-1.1258170	-0.2632845
O	2.6924348	0.7851438	-0.7223271
