11
0.00114084 (energy)
C	0.0542719	-0.0443703	0.0461922
H	-0.6462067	0.5283095	-0.5500021
C	-0.1493573	-0.3770226	1.3212545
H	-1.0613857	-0.0726145	1.8253514
H	0.5700238	-0.9512994	1.8933382
O	1.1656554	-0.3798246	-0.6710876
H	1.7638269	-0.8906491	-0.0986891
C	3.5318509	1.0194786	-0.9018373
H	3.4812529	0.8486289	-1.9890270
H	3.7090246	2.0619996	-0.5927818
O	3.3999610	0.1112247	-0.0910236
