11
0.00135739 (energy)
C	0.0036230	1.1148680	0.8702949
H	-0.8407750	1.4062909	1.4836014
C	0.0017039	0.0641451	0.0493905
H	-0.8824157	-0.5601344	-0.0353539
H	0.8621279	-0.2036298	-0.5527306
O	1.0636783	1.9563476	1.0446157
H	1.7953869	1.6578718	0.4772483
C	2.7001739	-1.2107142	-0.1214329
H	2.7697386	-1.7686072	-1.0688755
H	2.2776823	-1.7696526	0.7287698
O	3.0679149	-0.0469978	-0.0200942
