11
0.00146001 (energy)
C	-0.0748355	-0.0200241	0.0323506
H	0.8910538	0.2384237	-0.3851931
C	-0.6396730	0.6196271	1.0569049
H	-0.1295971	1.4551571	1.5262512
H	-1.6081539	0.3385358	1.4539125
O	-0.6362739	-1.0783309	-0.6210762
H	-1.4980199	-1.2743750	-0.2144418
C	3.6865512	0.1563157	0.7607834
H	4.2220956	-0.6819571	1.2343044
H	4.0438434	1.1623119	1.0329412
O	2.7562323	-0.0184325	-0.0162036
