11
0.00196766 (energy)
C	0.0005794	0.0507872	-0.0668447
H	-0.0068987	-0.6047140	0.7959081
C	0.0182240	1.3819441	0.0080976
H	0.0260071	1.8736503	0.9759499
H	0.0253507	2.0128987	-0.8730541
O	-0.0103134	-0.6566083	-1.2337491
H	-0.0030794	-0.0303663	-1.9781681
C	3.2353841	-1.1201838	-0.1531244
H	2.8674213	-1.7692797	-0.9636854
H	3.9677080	-1.5810544	0.5288257
O	2.8557384	0.0363827	-0.0191025
