29
0.000743284 (energy)
C	-0.4974858	2.4111147	0.9310679
C	-0.9663601	1.7074100	-0.1071200
H	-0.8560598	3.4154307	1.1292149
H	0.2519849	2.0015191	1.6035177
H	-1.7129348	2.1148304	-0.7775949
C	-0.4776567	0.3384324	-0.3776664
O	0.3583566	-0.2539050	0.2833399
O	-1.1201987	-0.1208856	-1.4801114
C	-0.7695940	-1.4506107	-1.8894706
C	0.4431675	-1.4156688	-2.8004767
H	-1.6285194	-1.8540592	-2.4357419
H	-0.6028565	-2.1034838	-1.0248638
H	0.2603683	-0.7611738	-3.6590488
H	0.6829691	-2.4182954	-3.1655504
H	1.3171066	-1.0164543	-2.2760862
C	8.1768694	0.8832551	2.0614215
H	9.2136805	0.9947431	2.3644190
H	7.4354298	1.4073897	2.6531275
H	8.6712930	-0.3655747	0.4629418
C	7.8635340	0.1273603	1.0030467
C	6.5418310	-0.1213390	0.4741188
C	5.3831859	0.3559503	0.9412457
H	6.5097479	-0.7705576	-0.3997424
H	5.3079648	1.0066933	1.8012354
O	4.1912710	0.0402279	0.3418409
C	3.0761165	0.6467848	0.9884665
H	2.1695484	0.3481312	0.4542258
H	3.1526354	1.7388959	0.9524953
H	2.9935666	0.3029049	2.0251777
