29
0.00167648 (energy)
C	0.1616205	0.0611396	0.6003236
C	-0.1138516	-0.0581575	-0.7045752
H	-0.6205408	-0.0393770	1.3450438
H	1.1704048	0.2611145	0.9524996
H	-1.1186402	-0.2572445	-1.0562371
C	0.9520459	0.0790087	-1.7200426
O	2.1265063	0.3038002	-1.4816677
O	0.3851366	-0.0854175	-2.9410242
C	1.2827897	0.0112540	-4.0561660
C	1.4266046	1.4582876	-4.4890102
H	0.8449336	-0.5746559	-4.8709835
H	2.2561827	-0.4366864	-3.8249843
H	0.4468303	1.8904467	-4.7174973
H	2.0624250	1.5365671	-5.3753784
H	1.8641505	2.0656411	-3.6903847
C	4.2568467	0.2098265	0.5901367
H	3.5739561	0.0852370	-0.2449396
H	5.2161425	0.6652703	0.3735997
H	2.9157738	-0.6394750	1.9463735
C	3.8999798	-0.1906635	1.8156842
C	4.6873939	-0.0964973	3.0238344
C	5.9199332	0.4078772	3.1459987
H	4.2048915	-0.4844142	3.9198587
H	6.4832986	0.8166132	2.3187978
O	6.5587076	0.4373192	4.3587346
C	7.8597704	1.0120539	4.2779819
H	8.2999845	0.9989473	5.2792374
H	7.8048552	2.0525069	3.9399024
H	8.5026982	0.4266571	3.6118046
