29
0.00525439 (energy)
C	-0.4910710	1.4288103	-2.1552736
C	0.1664415	1.6741483	-1.0149384
H	-0.5689284	2.1876485	-2.9263708
H	-0.9644122	0.4684772	-2.3433486
H	0.6381628	2.6306888	-0.8267600
C	0.2726034	0.6400621	0.0364993
O	-0.2045176	-0.4801993	-0.0273832
O	0.9832640	1.1658812	1.0649418
C	1.1907605	0.2905721	2.1827283
C	0.0220109	0.3844040	3.1456215
H	2.1068192	0.6218987	2.6827233
H	1.3585509	-0.7420141	1.8553114
H	-0.1315074	1.4207035	3.4641193
H	0.1975543	-0.2344779	4.0300498
H	-0.9071950	0.0568253	2.6687611
C	5.0544210	0.7778426	-2.6884890
H	5.5981219	1.3925673	-3.3996270
H	4.1886224	0.2451274	-3.0642191
H	6.3421403	1.2717551	-1.1210078
C	5.4605755	0.7034305	-1.4160054
C	4.8516631	-0.0637721	-0.3533951
C	3.7686497	-0.8435423	-0.4400640
H	5.3449311	0.0167841	0.6142541
H	3.2087934	-0.9897334	-1.3532431
O	3.2917632	-1.5213066	0.6521094
C	2.1331418	-2.2945033	0.3531635
H	1.8166445	-2.8009863	1.2695571
H	2.3581865	-3.0564771	-0.4008966
H	1.3134064	-1.6515905	0.0147336
