29
0.00551452 (energy)
C	2.0408324	2.9086669	-3.6706125
C	1.6245052	1.7221987	-3.2103491
H	2.7007886	2.9714069	-4.5291052
H	1.7331071	3.8400476	-3.2021055
H	1.9307506	0.7938437	-3.6764743
C	0.7250563	1.6362660	-2.0399931
O	0.2965800	2.5883758	-1.4102265
O	0.4764444	0.3241985	-1.8035839
C	-0.3922117	0.0508104	-0.6948174
C	0.4089339	-0.0285956	0.5911855
H	-0.8681328	-0.9153995	-0.8919813
H	-1.1935840	0.7952413	-0.6226044
H	1.2035976	-0.7767626	0.5035431
H	-0.2354625	-0.2949942	1.4336989
H	0.8944729	0.9274073	0.8112713
C	5.9581389	1.0113583	-0.3483609
H	6.7508980	1.7510937	-0.4078505
H	5.6158042	0.5851336	-1.2841522
H	5.8519620	1.1425283	1.7326698
C	5.4499676	0.6648905	0.8396773
C	4.3997399	-0.2962456	1.0881816
C	3.7376670	-1.0204721	0.1795417
H	4.1350437	-0.4290396	2.1362508
H	3.9251752	-0.9620134	-0.8835342
O	2.7565603	-1.9027899	0.5517956
C	2.1740769	-2.5747829	-0.5611932
H	1.4060868	-3.2558308	-0.1832545
H	2.9257571	-3.1661718	-1.0951331
H	1.6963014	-1.8602539	-1.2401752
