29
0.00556915 (energy)
C	0.5617416	-2.7821014	2.1346992
C	0.0020198	-1.8450916	1.3590692
H	-0.0446290	-3.5465736	2.6083921
H	1.6337505	-2.8064488	2.3132148
H	-1.0659282	-1.8200793	1.1808470
C	0.8282401	-0.8027166	0.7133600
O	2.0384719	-0.6982756	0.8189161
O	0.0000000	0.0000000	0.0000000
C	0.6380677	1.0750630	-0.7041141
C	0.7778104	2.2843791	0.2014077
H	-0.0034958	1.3251627	-1.5554556
H	1.6073108	0.7654139	-1.1118823
H	-0.1980844	2.5817880	0.5990288
H	1.2094187	3.1288520	-0.3432239
H	1.4169413	2.0596890	1.0611480
C	4.7615984	2.4047313	1.2569410
H	4.4767248	3.0203313	2.1049375
H	5.5794191	2.7651100	0.6438650
H	3.3016732	0.9720977	1.6756858
C	4.1132393	1.2611899	1.0086334
C	4.3680051	0.3351367	-0.0711976
C	5.2984400	0.4451728	-1.0254795
H	3.7200988	-0.5400773	-0.0903151
H	5.9891135	1.2739944	-1.0942690
O	5.4351926	-0.5111823	-1.9982649
C	6.4803823	-0.2101402	-2.9183506
H	6.5248878	-1.0151226	-3.6576039
H	7.4471020	-0.1599856	-2.4057170
H	6.2768996	0.7289788	-3.4441720
