29
0.00558217 (energy)
C	-0.3691107	1.7286942	-4.7931316
C	0.0683412	0.8314456	-3.9006864
H	0.0742812	1.7918486	-5.7810097
H	-1.1765476	2.4174548	-4.5579330
H	0.8728119	0.1450060	-4.1342015
C	-0.5356760	0.7452005	-2.5538935
O	-1.4443126	1.4472646	-2.1437757
O	0.1031180	-0.2400298	-1.8753057
C	-0.3614469	-0.4689566	-0.5372326
C	0.3568363	0.4517602	0.4314227
H	-0.1318729	-1.5113175	-0.2928653
H	-1.4493710	-0.3543724	-0.4673666
H	1.4413438	0.3243906	0.3505164
H	0.0528382	0.2444551	1.4613030
H	0.1419598	1.5015981	0.2082729
C	3.4433948	-0.1305632	0.9537346
H	3.3057594	-1.1502609	0.6066214
H	3.2151065	0.0666617	1.9946730
H	4.0821926	0.5301773	-0.9209726
C	3.8757300	0.8138300	0.1105734
C	4.1088468	2.2076070	0.4131577
C	3.9370151	2.8168982	1.5911683
H	4.4624928	2.8080557	-0.4238270
H	3.5905461	2.3104747	2.4812253
O	4.1967157	4.1543686	1.7439964
C	3.9517018	4.6111276	3.0710024
H	4.1808890	5.6799549	3.1104272
H	4.6001624	4.0936153	3.7862196
H	2.8988815	4.4748454	3.3408805
