29
0.00174044 (energy)
C	0.4462302	0.3864793	-0.2043526
C	-0.5606340	-0.3944733	0.2070050
H	1.4780928	0.0997483	-0.0325008
H	0.2631368	1.3258677	-0.7198039
H	-0.3790434	-1.3304331	0.7207228
C	-1.9673440	-0.0038482	-0.0268856
O	-2.3306428	1.0160787	-0.5876656
O	-2.7591195	-0.9739354	0.4939220
C	-4.1708310	-0.7608556	0.3513202
C	-4.6943931	0.0713561	1.5068502
H	-4.6460397	-1.7472462	0.3634116
H	-4.4094692	-0.3007456	-0.6145681
H	-4.4495244	-0.4018504	2.4634276
H	-5.7794801	0.1898258	1.4390636
H	-4.2343540	1.0645378	1.5158744
C	4.7644382	4.2412191	-0.8509496
H	5.0530725	5.2870038	-0.8982695
H	4.9339503	3.6464004	-1.7409058
H	4.0915546	4.4099544	1.1182949
C	4.2276211	3.7421426	0.2681854
C	3.7933300	2.3819904	0.4915507
C	3.8454630	1.3658526	-0.3763303
H	3.3823913	2.1859710	1.4809208
H	4.2346616	1.4569496	-1.3807867
O	3.3968916	0.1160890	-0.0350055
C	3.5386929	-0.8246064	-1.0954725
H	3.1610828	-1.7900038	-0.7463433
H	4.5923534	-0.9459336	-1.3692149
H	2.9495538	-0.5195772	-1.9670860
