29
0.00703954 (energy)
C	-0.3595470	0.4873368	2.5614610
C	0.3637404	-0.4144919	1.8858591
H	-0.3568646	0.5023548	3.6460141
H	-0.9680948	1.2277362	2.0484874
H	0.9701602	-1.1525397	2.3961946
C	0.3601699	-0.4354096	0.4074560
O	-0.2702134	0.3266611	-0.3056893
O	1.1713570	-1.4450206	0.0051140
C	1.2924243	-1.6106544	-1.4149479
C	0.1812208	-2.5033114	-1.9348842
H	2.2620101	-2.0844863	-1.6002115
H	1.3036369	-0.6431457	-1.9301088
H	0.1843499	-3.4653011	-1.4119202
H	0.2985252	-2.6839353	-3.0071054
H	-0.8000757	-2.0501443	-1.7621875
C	4.1320695	-0.5232318	0.3254751
H	4.0539932	0.5223876	0.6079616
H	4.0862164	-1.2510845	1.1271569
H	4.3140853	-0.0674838	-1.7038923
C	4.2772794	-0.8630119	-0.9602840
C	4.3947562	-2.1994532	-1.4975354
C	4.3806544	-3.3481211	-0.8128207
H	4.5059157	-2.2530746	-2.5796240
H	4.2753757	-3.4022853	0.2617442
O	4.5019940	-4.5563384	-1.4493076
C	4.4636369	-5.6570434	-0.5456579
H	4.5657813	-6.5779380	-1.1270291
H	3.5065798	-5.6902783	-0.0138752
H	5.2950328	-5.6052309	0.1656325
