29
0.00835739 (energy)
C	0.4650997	2.2450804	-4.5653075
C	0.4533796	1.1521225	-3.7918844
H	0.8962267	2.2174374	-5.5602213
H	0.0461072	3.1880639	-4.2234143
H	0.8707352	0.2123238	-4.1317294
C	-0.1340298	1.1894726	-2.4355360
O	-0.6388174	2.1691657	-1.9139019
O	-0.0031606	-0.0464780	-1.8928414
C	-0.5289291	-0.1967226	-0.5663190
C	0.5177845	0.1954564	0.4596096
H	-0.7875288	-1.2534803	-0.4425234
H	-1.4532223	0.3779553	-0.4358698
H	1.4334041	-0.3878380	0.3170132
H	0.1472954	0.0284705	1.4749407
H	0.7927482	1.2499685	0.3570101
C	3.2676979	-4.6471597	-0.6547592
H	3.2505207	-5.7318143	-0.7041924
H	3.2605109	-4.1144639	-1.5985544
H	3.3014874	-4.6405539	1.4328189
C	3.2961752	-4.0287949	0.5312117
C	3.3215086	-2.6032219	0.7670398
C	3.3212976	-1.6332708	-0.1536480
H	3.3428620	-2.3098398	1.8156668
H	3.3013008	-1.8196528	-1.2183399
O	3.3470918	-0.3108938	0.2072976
C	3.3421430	0.5634319	-0.9174849
H	3.3636488	1.5927724	-0.5480685
H	2.4306096	0.4295200	-1.5099628
H	4.2296202	0.4023531	-1.5389956
