29
0.00305672 (energy)
C	-0.3665975	-0.5047815	-0.0323967
C	0.4055831	0.5798215	0.1099099
H	-0.5014861	-0.9675268	-1.0040757
H	-0.8792504	-0.9528983	0.8149769
H	0.9165427	1.0269369	-0.7338376
C	0.5895257	1.2110143	1.4342538
O	0.0814492	0.8265267	2.4738396
O	1.4103731	2.2786493	1.2743056
C	1.7054972	3.0146622	2.4700708
C	0.6396876	4.0664892	2.7143106
H	2.6740260	3.5014043	2.3152484
H	1.8152330	2.3472598	3.3326957
H	0.5433635	4.7253258	1.8450688
H	0.8862906	4.6722144	3.5908536
H	-0.3395557	3.6040105	2.8734438
C	2.0209516	-1.9418657	5.9104756
H	1.6211655	-1.9059925	6.9194843
H	2.9551697	-2.4738213	5.7732694
H	0.4324423	-0.8331129	5.1317116
C	1.3663922	-1.3471833	4.9066739
C	1.7616060	-1.3035553	3.5172792
C	2.8545659	-1.8482831	2.9721358
H	1.0806591	-0.7632264	2.8611515
H	3.5909132	-2.4032771	3.5364773
O	3.1127927	-1.7322682	1.6306860
C	4.3227479	-2.3799536	1.2484327
H	4.4563302	-2.2426508	0.1715035
H	4.2703252	-3.4545237	1.4543618
H	5.1815041	-1.9334856	1.7613087
