29
0.00323256 (energy)
C	-0.9035363	0.1078435	-2.4697866
C	-1.4322940	-0.3033371	-1.3103800
H	-1.4754564	0.0585392	-3.3900933
H	0.1082965	0.5012390	-2.5254456
H	-2.4402293	-0.6955160	-1.2541314
C	-0.6529161	-0.2364796	-0.0556984
O	0.4898429	0.1774162	0.0417871
O	-1.4338196	-0.7169312	0.9435884
C	-0.8342971	-0.7218087	2.2471285
C	-0.0465402	-2.0014471	2.4566703
H	-1.6507038	-0.6690760	2.9748889
H	-0.2079601	0.1644195	2.4016962
H	-0.6858667	-2.8765010	2.3002487
H	0.3656711	-2.0417376	3.4688473
H	0.7777230	-2.0771462	1.7404390
C	3.2046003	-1.9129869	-1.8068124
H	3.3331426	-2.8248614	-2.3822914
H	2.2801978	-1.3671435	-1.9554761
H	5.0608211	-2.1187401	-0.8733898
C	4.1613768	-1.5103339	-0.9629153
C	4.1444404	-0.3291445	-0.1304372
C	3.1710476	0.5839797	-0.0456924
H	5.0307159	-0.1873016	0.4864452
H	2.2534604	0.5342123	-0.6151341
O	3.2818395	1.6652693	0.7898709
C	2.1420781	2.5182212	0.7348943
H	2.3070157	3.3509440	1.4247067
H	1.2402842	1.9829006	1.0512096
H	2.0107294	2.9270742	-0.2727884
