29
0.00354443 (energy)
C	-0.1628828	-0.3031399	2.6094883
C	0.1169313	-1.1358677	1.5989706
H	-0.1737647	-0.6570735	3.6347203
H	-0.3864933	0.7464219	2.4360463
H	0.3396736	-2.1816761	1.7709372
C	0.1316517	-0.6538182	0.2012805
O	-0.0987702	0.4905197	-0.1510084
O	0.4397821	-1.7059907	-0.5969719
C	0.5041154	-1.4172802	-2.0009573
C	-0.8725760	-1.5451334	-2.6257112
H	1.1807582	-2.1529020	-2.4481162
H	0.9377574	-0.4275807	-2.1854546
H	-1.2910388	-2.5386419	-2.4339949
H	-0.8243882	-1.3848483	-3.7064658
H	-1.5684170	-0.8180183	-2.1953204
C	5.3577849	-5.2020854	-0.7486833
H	5.8271851	-6.1611861	-0.9461770
H	5.9337909	-4.3166187	-0.9910294
H	3.6159373	-6.0898099	-0.0158258
C	4.1255812	-5.1509500	-0.2302510
C	3.3662959	-3.9635381	0.0892079
C	3.7504243	-2.6927916	-0.0724084
H	2.3768199	-4.1473107	0.5055159
H	4.7110416	-2.4054397	-0.4765744
O	2.9276401	-1.6522067	0.2737667
C	3.5195598	-0.3805091	0.0247252
H	2.8054074	0.3916160	0.3251949
H	3.7345766	-0.2539537	-1.0418615
H	4.4324195	-0.2539542	0.6167631
