29
0.0038134 (energy)
C	1.9372490	1.1850291	-4.5761893
C	1.2234391	1.4996709	-3.4879092
H	1.8434156	1.7634735	-5.4889245
H	2.6284363	0.3460353	-4.5798131
H	0.5345200	2.3352984	-3.4835497
C	1.3509212	0.7112716	-2.2436019
O	2.0803604	-0.2542226	-2.0937668
O	0.5164331	1.2531632	-1.3220808
C	0.5138642	0.6112402	-0.0388833
C	-0.4749064	-0.5395029	-0.0307496
H	0.2080016	1.3642393	0.6948581
H	1.5194311	0.2777831	0.2425973
H	-1.4737283	-0.1901860	-0.3122773
H	-0.5277383	-0.9983989	0.9605460
H	-0.1898304	-1.3076020	-0.7566166
C	3.5083513	-1.0829249	0.3153672
H	3.8175555	-0.1353321	0.7462676
H	2.7858045	-1.0407183	-0.4912991
H	4.7369428	-2.1831155	1.5957232
C	4.0146034	-2.2302124	0.7813642
C	3.7089357	-3.5652290	0.3200477
C	2.8636141	-3.9066913	-0.6583725
H	4.2355966	-4.3643525	0.8398337
H	2.2941053	-3.1900666	-1.2335383
O	2.6638955	-5.2196209	-0.9988958
C	1.7280869	-5.3728138	-2.0620985
H	1.6247712	-6.4411803	-2.2727916
H	2.0866664	-4.8761714	-2.9701859
H	0.7458731	-4.9822611	-1.7747619
