29
0.00394669 (energy)
C	1.4793021	2.0976585	2.4543994
C	0.6321403	1.3345088	1.7524044
H	1.1694101	2.5611832	3.3847756
H	2.4971377	2.2758359	2.1168685
H	-0.3820976	1.1566336	2.0879396
C	1.0541402	0.7026641	0.4840140
O	2.1581558	0.8095944	-0.0223719
O	0.0000000	0.0000000	0.0000000
C	0.2336223	-0.6898114	-1.2362235
C	-0.0398986	0.2316503	-2.4101220
H	-0.4585302	-1.5377652	-1.2651240
H	1.2486347	-1.1016456	-1.2778408
H	-1.0570754	0.6331762	-2.3548634
H	0.0781556	-0.3017471	-3.3575365
H	0.6414069	1.0883388	-2.4042030
C	9.6612317	-0.2933998	-1.5340444
H	10.6667344	-0.3752765	-1.9358839
H	8.8533338	-0.6521999	-2.1610446
H	10.3322905	0.5674137	0.2458006
C	9.4636171	0.2304852	-0.3190522
C	8.1975063	0.4085192	0.3545814
C	6.9852931	0.0840365	-0.1077183
H	8.2614054	0.8573680	1.3448335
H	6.8154081	-0.3653667	-1.0761619
O	5.8569657	0.3077888	0.6382309
C	4.6685984	-0.1062379	-0.0295793
H	3.8190045	0.1043901	0.6263923
H	4.6901168	-1.1829754	-0.2296524
H	4.5310481	0.4533931	-0.9611000
