 argument  1 = NW.nw
                                         
                                         


              Northwest Computational Chemistry Package (NWChem) 6.5
              ------------------------------------------------------


                    Environmental Molecular Sciences Laboratory
                       Pacific Northwest National Laboratory
                                Richland, WA 99352

                              Copyright (c) 1994-2014
                       Pacific Northwest National Laboratory
                            Battelle Memorial Institute

             NWChem is an open-source computational chemistry package
                        distributed under the terms of the
                      Educational Community License (ECL) 2.0
             A copy of the license is included with this distribution
                              in the LICENSE.TXT file

                                  ACKNOWLEDGMENT
                                  --------------

            This software and its documentation were developed at the
            EMSL at Pacific Northwest National Laboratory, a multiprogram
            national laboratory, operated for the U.S. Department of Energy
            by Battelle under Contract Number DE-AC05-76RL01830. Support
            for this work was provided by the Department of Energy Office
            of Biological and Environmental Research, Office of Basic
            Energy Sciences, and the Office of Advanced Scientific Computing.


           Job information
           ---------------

    hostname        = learnerPC
    program         = nwchem
    date            = Tue Mar 29 23:16:54 2016

    compiled        = Sun_Nov_23_23:34:13_2014
    source          = /build/buildd/nwchem-6.5+r26243
    nwchem branch   = 6.5
    nwchem revision = 26243
    ga revision     = 10506
    input           = NW.nw
    prefix          = NW.
    data base       = ./NW.db
    status          = restart
    nproc           =        1
    time left       =     -1s



           Memory information
           ------------------

    heap     =   13107198 doubles =    100.0 Mbytes
    stack    =   13107195 doubles =    100.0 Mbytes
    global   =   26214400 doubles =    200.0 Mbytes (distinct from heap & stack)
    total    =   52428793 doubles =    400.0 Mbytes
    verify   = yes
    hardfail = no 


           Directory information
           ---------------------

  0 permanent = .
  0 scratch   = .


           Previous task information
           -------------------------

    Theory    = dft                             
    Operation = energy                        
    Status    = ok                            
    Qmmm      = F
    Ignore    = F


           Geometries in the database
           --------------------------

       Name                              Natoms  Last Modified
       --------------------------------  ------  ------------------------
    1  geometry                              11  Tue Mar 29 23:16:47 2016  

  The geometry named "geometry" is the default for restart



           Basis sets in the database
           --------------------------

       Name                              Natoms  Last Modified
        --------------------------------  ------  ------------------------
    1  ao basis                               0  Tue Mar 29 23:16:47 2016  

  The basis set named "ao basis" is the default AO basis for restart




                                NWChem Input Module
                                -------------------



 Scaling coordinates for geometry "geometry" by  1.889725989
 (inverse scale =  0.529177249)

 C1  symmetry detected

          ------
          auto-z
          ------
  autoz: The atoms group into disjoint clusters
 cluster   1:    1    2    3    4    5    6    7
 cluster   2:    8    9   10   11
 Connecting clusters   1   2 via atoms    6    9 r = 2.80
  autoz: regenerating connections with new bonds


                             Geometry "geometry" -> ""
                             -------------------------

 Output coordinates in angstroms (scale by  1.889725989 to convert to a.u.)

  No.       Tag          Charge          X              Y              Z
 ---- ---------------- ---------- -------------- -------------- --------------
    1 C                    6.0000    -0.20203420     1.89735135    -0.36406510
    2 H                    1.0000    -0.88029357     1.84989410    -1.20774292
    3 C                    6.0000    -0.26908957     2.82054821     0.59568365
    4 H                    1.0000    -1.03716866     3.58704789     0.56241935
    5 H                    1.0000     0.42386187     2.84328234     1.42868070
    6 O                    8.0000     0.72468204     0.89667598    -0.40921799
    7 H                    1.0000     1.30956759     0.97815063     0.36386790
    8 C                    6.0000    -0.51801153    -2.48364252    -0.22681072
    9 H                    1.0000    -0.72873805    -1.44366908     0.06946771
   10 H                    1.0000    -1.05723390    -2.84192150    -1.11823172
   11 O                    8.0000     0.26342003    -3.19396681     0.39330449

      Atomic Mass 
      ----------- 

      C                 12.000000
      H                  1.007825
      O                 15.994910


 Effective nuclear repulsion energy (a.u.)     145.3007674399

            Nuclear Dipole moment (a.u.) 
            ----------------------------
        X                 Y               Z
 ---------------- ---------------- ----------------
    -0.0000000000     0.0000000000     0.0000000000



                                Z-matrix (autoz)
                                -------- 

 Units are Angstrom for bonds and degrees for angles

      Type          Name      I     J     K     L     M      Value
      ----------- --------  ----- ----- ----- ----- ----- ----------
    1 Stretch                  1     2                       1.08355
    2 Stretch                  1     3                       1.33338
    3 Stretch                  1     6                       1.36462
    4 Stretch                  3     4                       1.08562
    5 Stretch                  3     5                       1.08378
    6 Stretch                  6     9                       2.79621
    7 Stretch                  6     7                       0.97283
    8 Stretch                  8     9                       1.10169
    9 Stretch                  8    10                       1.10171
   10 Stretch                  8    11                       1.22464
   11 Bend                     1     3     4               120.15711
   12 Bend                     1     3     5               122.38448
   13 Bend                     1     6     9               104.77953
   14 Bend                     1     6     7               108.69816
   15 Bend                     2     1     3               124.00653
   16 Bend                     2     1     6               111.54367
   17 Bend                     3     1     6               124.44981
   18 Bend                     4     3     5               117.45841
   19 Bend                     6     9     8               130.13724
   20 Bend                     7     6     9               104.27403
   21 Bend                     9     8    10               115.52881
   22 Bend                     9     8    11               122.23591
   23 Bend                    10     8    11               122.23528
   24 Torsion                  1     6     9     8         154.38643
   25 Torsion                  2     1     3     4           0.00000
   26 Torsion                  2     1     3     5        -179.99980
   27 Torsion                  2     1     6     9         -68.99320
   28 Torsion                  2     1     6     7         179.99890
   29 Torsion                  3     1     6     9         111.00678
   30 Torsion                  3     1     6     7          -0.00111
   31 Torsion                  4     3     1     6        -180.00000
   32 Torsion                  5     3     1     6           0.00021
   33 Torsion                  6     9     8    10         -99.19744
   34 Torsion                  6     9     8    11          80.80242
   35 Torsion                  7     6     9     8         -91.45673


            XYZ format geometry
            -------------------
    11
 geometry
 C                    -0.20203420     1.89735135    -0.36406510
 H                    -0.88029357     1.84989410    -1.20774292
 C                    -0.26908957     2.82054821     0.59568365
 H                    -1.03716866     3.58704789     0.56241935
 H                     0.42386187     2.84328234     1.42868070
 O                     0.72468204     0.89667598    -0.40921799
 H                     1.30956759     0.97815063     0.36386790
 C                    -0.51801153    -2.48364252    -0.22681072
 H                    -0.72873805    -1.44366908     0.06946771
 H                    -1.05723390    -2.84192150    -1.11823172
 O                     0.26342003    -3.19396681     0.39330449

 ==============================================================================
                                internuclear distances
 ------------------------------------------------------------------------------
       center one      |      center two      | atomic units |  angstroms
 ------------------------------------------------------------------------------
    2 H                |   1 C                |     2.04761  |     1.08355
    3 C                |   1 C                |     2.51973  |     1.33338
    4 H                |   3 C                |     2.05153  |     1.08562
    5 H                |   3 C                |     2.04805  |     1.08378
    6 O                |   1 C                |     2.57876  |     1.36462
    7 H                |   6 O                |     1.83838  |     0.97283
    9 H                |   8 C                |     2.08190  |     1.10169
   10 H                |   8 C                |     2.08192  |     1.10171
   11 O                |   8 C                |     2.31423  |     1.22464
 ------------------------------------------------------------------------------
                         number of included internuclear distances:          9
 ==============================================================================



 ==============================================================================
                                 internuclear angles
 ------------------------------------------------------------------------------
        center 1       |       center 2       |       center 3       |  degrees
 ------------------------------------------------------------------------------
    2 H                |   1 C                |   3 C                |   124.01
    2 H                |   1 C                |   6 O                |   111.54
    3 C                |   1 C                |   6 O                |   124.45
    1 C                |   3 C                |   4 H                |   120.16
    1 C                |   3 C                |   5 H                |   122.38
    4 H                |   3 C                |   5 H                |   117.46
    1 C                |   6 O                |   7 H                |   108.70
    9 H                |   8 C                |  10 H                |   115.53
    9 H                |   8 C                |  11 O                |   122.24
   10 H                |   8 C                |  11 O                |   122.24
 ------------------------------------------------------------------------------
                            number of included internuclear angles:         10
 ==============================================================================





 Summary of "ao basis" -> "" (cartesian)
 ------------------------------------------------------------------------------
       Tag                 Description            Shells   Functions and Types
 ---------------- ------------------------------  ------  ---------------------
 *                           6-31g                    on all atoms 



                                 NWChem DFT Module
                                 -----------------


                      Basis "ao basis" -> "ao basis" (cartesian)
                      -----
  C (Carbon)
  ----------
            Exponent  Coefficients 
       -------------- ---------------------------------------------------------
  1 S  3.04752490E+03  0.001835
  1 S  4.57369510E+02  0.014037
  1 S  1.03948690E+02  0.068843
  1 S  2.92101550E+01  0.232184
  1 S  9.28666300E+00  0.467941
  1 S  3.16392700E+00  0.362312

  2 S  7.86827240E+00 -0.119332
  2 S  1.88128850E+00 -0.160854
  2 S  5.44249300E-01  1.143456

  3 P  7.86827240E+00  0.068999
  3 P  1.88128850E+00  0.316424
  3 P  5.44249300E-01  0.744308

  4 S  1.68714400E-01  1.000000

  5 P  1.68714400E-01  1.000000

  H (Hydrogen)
  ------------
            Exponent  Coefficients 
       -------------- ---------------------------------------------------------
  1 S  1.87311370E+01  0.033495
  1 S  2.82539370E+00  0.234727
  1 S  6.40121700E-01  0.813757

  2 S  1.61277800E-01  1.000000

  O (Oxygen)
  ----------
            Exponent  Coefficients 
       -------------- ---------------------------------------------------------
  1 S  5.48467170E+03  0.001831
  1 S  8.25234950E+02  0.013950
  1 S  1.88046960E+02  0.068445
  1 S  5.29645000E+01  0.232714
  1 S  1.68975700E+01  0.470193
  1 S  5.79963530E+00  0.358521

  2 S  1.55396160E+01 -0.110778
  2 S  3.59993360E+00 -0.148026
  2 S  1.01376180E+00  1.130767

  3 P  1.55396160E+01  0.070874
  3 P  3.59993360E+00  0.339753
  3 P  1.01376180E+00  0.727159

  4 S  2.70005800E-01  1.000000

  5 P  2.70005800E-01  1.000000



 Summary of "ao basis" -> "ao basis" (cartesian)
 ------------------------------------------------------------------------------
       Tag                 Description            Shells   Functions and Types
 ---------------- ------------------------------  ------  ---------------------
 C                           6-31g                   5        9   3s2p
 H                           6-31g                   2        2   2s
 O                           6-31g                   5        9   3s2p




 Summary of "ao basis" -> "ao basis" (cartesian)
 ------------------------------------------------------------------------------
       Tag                 Description            Shells   Functions and Types
 ---------------- ------------------------------  ------  ---------------------
 C                           6-31g                   5        9   3s2p
 H                           6-31g                   2        2   2s
 O                           6-31g                   5        9   3s2p


  Caching 1-el integrals 

            General Information
            -------------------
          SCF calculation type: DFT
          Wavefunction type:  closed shell.
          No. of atoms     :    11
          No. of electrons :    40
           Alpha electrons :    20
            Beta electrons :    20
          Charge           :     0
          Spin multiplicity:     1
          Use of symmetry is: off; symmetry adaption is: off
          Maximum number of iterations:  30
          AO basis - number of functions:    57
                     number of shells:    37
          Convergence on energy requested: 1.00D-06
          Convergence on density requested: 1.00D-05
          Convergence on gradient requested: 5.00D-04

              XC Information
              --------------
                         B3LYP Method XC Potential
                     Hartree-Fock (Exact) Exchange  0.200          
                        Slater Exchange Functional  0.800 local    
                    Becke 1988 Exchange Functional  0.720 non-local
              Lee-Yang-Parr Correlation Functional  0.810          
                  VWN I RPA Correlation Functional  0.190 local    

             Grid Information
             ----------------
          Grid used for XC integration:  medium    
          Radial quadrature: Mura-Knowles        
          Angular quadrature: Lebedev. 
          Tag              B.-S. Rad. Rad. Pts. Rad. Cut. Ang. Pts.
          ---              ---------- --------- --------- ---------
          C                   0.70       49          13.0       434
          H                   0.35       45          13.0       434
          O                   0.60       49          13.0       434
          Grid pruning is: on 
          Number of quadrature shells:   515
          Spatial weights used:  Erf1

          Convergence Information
          -----------------------
          Convergence aids based upon iterative change in 
          total energy or number of iterations. 
          Levelshifting, if invoked, occurs when the 
          HOMO/LUMO gap drops below (HL_TOL): 1.00D-02
          DIIS, if invoked, will attempt to extrapolate 
          using up to (NFOCK): 10 stored Fock matrices.

                    Damping( 0%)  Levelshifting(0.5)       DIIS
                  --------------- ------------------- ---------------
          dE  on:    start            ASAP                start   
          dE off:    2 iters         30 iters            30 iters 


      Screening Tolerance Information
      -------------------------------
          Density screening/tol_rho: 1.00D-10
          AO Gaussian exp screening on grid/accAOfunc:  14
          CD Gaussian exp screening on grid/accCDfunc:  20
          XC Gaussian exp screening on grid/accXCfunc:  20
          Schwarz screening/accCoul: 1.00D-08


 Loading old vectors from job with title :



   Time after variat. SCF:      0.0
   Time prior to 1st pass:      0.0

 Integral file          = ./NW.aoints.0
 Record size in doubles =  65536        No. of integs per rec  =  43688
 Max. records in memory =     45        Max. records in file   = 197863
 No. of bits per label  =      8        No. of bits per value  =     64


 #quartets = 1.507D+05 #integrals = 7.945D+05 #direct =  0.0% #cached =100.0%


 Grid_pts file          = ./NW.gridpts.0
 Record size in doubles =  12289        No. of grid_pts per rec  =   3070
 Max. records in memory =     82        Max. recs in file   =   1055189


           Memory utilization after 1st SCF pass: 
           Heap Space remaining (MW):        9.14             9141118
          Stack Space remaining (MW):       13.11            13106588

   convergence    iter        energy       DeltaE   RMS-Dens  Diis-err    time
 ---------------- ----- ----------------- --------- --------- ---------  ------
 d= 0,ls=0.0,diis     1   -264.4349372081 -4.10D+02  1.10D-01  6.55D+00     1.1
 d= 0,ls=0.0,diis     2   -267.0525726510 -2.62D+00  5.27D-02  9.81D+00     1.6
 d= 0,ls=0.0,diis     3   -268.0310476449 -9.78D-01  1.75D-02  1.73D+00     2.1
 d= 0,ls=0.0,diis     4   -268.1906689907 -1.60D-01  7.58D-03  2.66D-01     2.6
 d= 0,ls=0.0,diis     5   -268.2164678592 -2.58D-02  3.36D-03  6.33D-02     3.1
  Resetting Diis
 d= 0,ls=0.0,diis     6   -268.2245069853 -8.04D-03  8.67D-04  5.03D-03     3.6
 d= 0,ls=0.0,diis     7   -268.2250471308 -5.40D-04  9.24D-04  9.33D-04     4.0
 d= 0,ls=0.0,diis     8   -268.2246387620  4.08D-04  6.17D-04  4.95D-03     4.5
 d= 0,ls=0.0,diis     9   -268.2251458017 -5.07D-04  4.12D-05  7.65D-06     5.0
 d= 0,ls=0.0,diis    10   -268.2251467305 -9.29D-07  1.43D-05  1.11D-06     5.5
 d= 0,ls=0.0,diis    11   -268.2251468700 -1.40D-07  4.04D-06  8.02D-08     6.0


         Total DFT energy =     -268.225146870043
      One electron energy =     -651.912448515447
           Coulomb energy =      274.000346497626
    Exchange-Corr. energy =      -35.613812292137
 Nuclear repulsion energy =      145.300767439915

 Numeric. integr. density =       39.999993944259

     Total iterative time =      6.0s



                       DFT Final Molecular Orbital Analysis
                       ------------------------------------

 Vector    5  Occ=2.000000D+00  E=-1.017757D+01
              MO Center= -2.7D-01,  2.8D+00,  6.0D-01, r^2= 2.8D-02
   Bfn.  Coefficient  Atom+Function         Bfn.  Coefficient  Atom+Function  
  ----- ------------  ---------------      ----- ------------  ---------------
    12      0.995085   3 C  s         

 Vector    6  Occ=2.000000D+00  E=-1.079786D+00
              MO Center=  6.4D-01,  1.1D+00, -2.6D-01, r^2= 5.8D-01
   Bfn.  Coefficient  Atom+Function         Bfn.  Coefficient  Atom+Function  
  ----- ------------  ---------------      ----- ------------  ---------------
    30      0.472524   6 O  s                26      0.441970   6 O  s         
    25     -0.202866   6 O  s                 2      0.158251   1 C  s         

 Vector    7  Occ=2.000000D+00  E=-1.068053D+00
              MO Center=  2.4D-02, -3.0D+00,  2.0D-01, r^2= 4.9D-01
   Bfn.  Coefficient  Atom+Function         Bfn.  Coefficient  Atom+Function  
  ----- ------------  ---------------      ----- ------------  ---------------
    50      0.434431  11 O  s                54      0.398329  11 O  s         
    37      0.230870   8 C  s                49     -0.194630  11 O  s         

 Vector    8  Occ=2.000000D+00  E=-7.618659D-01
              MO Center= -1.7D-01,  2.3D+00,  1.3D-01, r^2= 1.4D+00
   Bfn.  Coefficient  Atom+Function         Bfn.  Coefficient  Atom+Function  
  ----- ------------  ---------------      ----- ------------  ---------------
    13      0.313342   3 C  s                 2      0.290191   1 C  s         
    17      0.218412   3 C  s                 6      0.200578   1 C  s         
    12     -0.160962   3 C  s                30     -0.156826   6 O  s         

 Vector    9  Occ=2.000000D+00  E=-6.340088D-01
              MO Center= -6.2D-01, -2.3D+00, -3.2D-01, r^2= 1.5D+00
   Bfn.  Coefficient  Atom+Function         Bfn.  Coefficient  Atom+Function  
  ----- ------------  ---------------      ----- ------------  ---------------
    37      0.347794   8 C  s                41      0.327648   8 C  s         
    54     -0.256725  11 O  s                50     -0.198461  11 O  s         
    47      0.186133  10 H  s                45      0.181613   9 H  s         
    36     -0.161980   8 C  s         

 Vector   10  Occ=2.000000D+00  E=-6.326566D-01
              MO Center=  2.2D-01,  1.6D+00, -1.2D-01, r^2= 2.4D+00
   Bfn.  Coefficient  Atom+Function         Bfn.  Coefficient  Atom+Function  
  ----- ------------  ---------------      ----- ------------  ---------------
    27      0.281976   6 O  px               29      0.199414   6 O  pz        
     2     -0.196396   1 C  s                13      0.191779   3 C  s         
    34      0.191925   7 H  s                17      0.174530   3 C  s         
     5      0.172159   1 C  pz                4      0.166338   1 C  py        
     6     -0.163988   1 C  s         

 Vector   11  Occ=2.000000D+00  E=-5.077650D-01
              MO Center=  3.1D-02,  2.0D+00,  7.1D-02, r^2= 2.2D+00
   Bfn.  Coefficient  Atom+Function         Bfn.  Coefficient  Atom+Function  
  ----- ------------  ---------------      ----- ------------  ---------------
    27     -0.253001   6 O  px                3      0.244564   1 C  px        
    16      0.231517   3 C  pz                4     -0.200157   1 C  py        
    23      0.181834   5 H  s                10     -0.163701   2 H  s         

 Vector   12  Occ=2.000000D+00  E=-4.952134D-01
              MO Center= -4.5D-01, -2.3D+00, -1.7D-01, r^2= 2.5D+00
   Bfn.  Coefficient  Atom+Function         Bfn.  Coefficient  Atom+Function  
  ----- ------------  ---------------      ----- ------------  ---------------
    39      0.332129   8 C  py               40      0.281669   8 C  pz        
    52      0.203543  11 O  py               45      0.191213   9 H  s         
    47     -0.190548  10 H  s                53      0.171592  11 O  pz        

 Vector   13  Occ=2.000000D+00  E=-4.878578D-01
              MO Center= -2.2D-01,  2.1D+00,  9.4D-02, r^2= 3.5D+00
   Bfn.  Coefficient  Atom+Function         Bfn.  Coefficient  Atom+Function  
  ----- ------------  ---------------      ----- ------------  ---------------
    15      0.267393   3 C  py                5     -0.242600   1 C  pz        
    21      0.203407   4 H  s                28     -0.171420   6 O  py        
    29     -0.169475   6 O  pz               30      0.162539   6 O  s         
    14     -0.160094   3 C  px        

 Vector   14  Occ=2.000000D+00  E=-4.357085D-01
              MO Center=  1.7D-01, -3.1D+00,  3.2D-01, r^2= 1.1D+00
   Bfn.  Coefficient  Atom+Function         Bfn.  Coefficient  Atom+Function  
  ----- ------------  ---------------      ----- ------------  ---------------
    54      0.372822  11 O  s                51      0.328011  11 O  px        
    52     -0.298481  11 O  py               53      0.262805  11 O  pz        
    38     -0.239770   8 C  px               39      0.217751   8 C  py        
    40     -0.188476   8 C  pz               50      0.189045  11 O  s         
    55      0.161393  11 O  px        

 Vector   15  Occ=2.000000D+00  E=-3.982260D-01
              MO Center= -2.4D-01,  2.5D+00,  3.1D-01, r^2= 2.4D+00
   Bfn.  Coefficient  Atom+Function         Bfn.  Coefficient  Atom+Function  
  ----- ------------  ---------------      ----- ------------  ---------------
    14      0.266109   3 C  px               16      0.243609   3 C  pz        
    23      0.238869   5 H  s                24      0.222601   5 H  s         
    10      0.203593   2 H  s                 5     -0.190980   1 C  pz        
    21     -0.187230   4 H  s                11      0.172947   2 H  s         
     3     -0.161367   1 C  px        

 Vector   16  Occ=2.000000D+00  E=-3.971170D-01
              MO Center=  3.7D-01,  1.1D+00, -3.0D-01, r^2= 2.3D+00
   Bfn.  Coefficient  Atom+Function         Bfn.  Coefficient  Atom+Function  
  ----- ------------  ---------------      ----- ------------  ---------------
    27      0.312506   6 O  px               28      0.294400   6 O  py        
    29     -0.248627   6 O  pz               31      0.213016   6 O  px        
    32      0.202354   6 O  py                5     -0.177371   1 C  pz        
    33     -0.171509   6 O  pz                3      0.167770   1 C  px        
     4      0.165426   1 C  py        

 Vector   17  Occ=2.000000D+00  E=-3.917723D-01
              MO Center=  4.7D-03, -2.7D+00,  1.3D-01, r^2= 2.1D+00
   Bfn.  Coefficient  Atom+Function         Bfn.  Coefficient  Atom+Function  
  ----- ------------  ---------------      ----- ------------  ---------------
    51      0.374005  11 O  px               53     -0.277715  11 O  pz        
    38      0.265866   8 C  px               55      0.232670  11 O  px        
    40     -0.208781   8 C  pz               57     -0.174830  11 O  pz        
    52      0.157911  11 O  py               42      0.155490   8 C  px        

 Vector   18  Occ=2.000000D+00  E=-3.663626D-01
              MO Center=  4.0D-01,  1.3D+00, -3.2D-01, r^2= 2.1D+00
   Bfn.  Coefficient  Atom+Function         Bfn.  Coefficient  Atom+Function  
  ----- ------------  ---------------      ----- ------------  ---------------
    29      0.368033   6 O  pz               28      0.345043   6 O  py        
    32      0.246721   6 O  py               33      0.230924   6 O  pz        
    30     -0.226753   6 O  s                15      0.202551   3 C  py        
     4     -0.186699   1 C  py               17     -0.184184   3 C  s         
     5     -0.161651   1 C  pz               26     -0.152589   6 O  s         

 Vector   19  Occ=2.000000D+00  E=-2.607286D-01
              MO Center= -4.4D-02, -2.9D+00,  1.5D-01, r^2= 1.8D+00
   Bfn.  Coefficient  Atom+Function         Bfn.  Coefficient  Atom+Function  
  ----- ------------  ---------------      ----- ------------  ---------------
    52      0.444513  11 O  py               53      0.377168  11 O  pz        
    56      0.318871  11 O  py               48      0.293909  10 H  s         
    46     -0.281030   9 H  s                57      0.271372  11 O  pz        
    45     -0.189203   9 H  s                47      0.188741  10 H  s         

 Vector   20  Occ=2.000000D+00  E=-2.402319D-01
              MO Center=  1.5D-02,  2.0D+00,  1.1D-01, r^2= 2.3D+00
   Bfn.  Coefficient  Atom+Function         Bfn.  Coefficient  Atom+Function  
  ----- ------------  ---------------      ----- ------------  ---------------
    14      0.249756   3 C  px               15      0.241064   3 C  py        
    27     -0.230051   6 O  px               28     -0.220677   6 O  py        
    16     -0.214295   3 C  pz               18      0.201454   3 C  px        
    29      0.198338   6 O  pz               19      0.193457   3 C  py        
    31     -0.192554   6 O  px               32     -0.183282   6 O  py        

 Vector   21  Occ=0.000000D+00  E=-4.415819D-02
              MO Center= -2.6D-01, -2.7D+00, -2.5D-02, r^2= 1.4D+00
   Bfn.  Coefficient  Atom+Function         Bfn.  Coefficient  Atom+Function  
  ----- ------------  ---------------      ----- ------------  ---------------
    42      0.421424   8 C  px               38      0.376185   8 C  px        
    55     -0.350171  11 O  px               51     -0.338376  11 O  px        
    44     -0.325913   8 C  pz               40     -0.292403   8 C  pz        
    57      0.268190  11 O  pz               53      0.260986  11 O  pz        
    43      0.184600   8 C  py               39      0.162873   8 C  py        

 Vector   22  Occ=0.000000D+00  E= 2.671848D-02
              MO Center= -1.9D-01,  2.2D+00,  5.4D-02, r^2= 2.0D+00
   Bfn.  Coefficient  Atom+Function         Bfn.  Coefficient  Atom+Function  
  ----- ------------  ---------------      ----- ------------  ---------------
     8      0.391633   1 C  py                7      0.389578   1 C  px        
    18     -0.377624   3 C  px               19     -0.364640   3 C  py        
     9     -0.339431   1 C  pz               20      0.328274   3 C  pz        
     3      0.297687   1 C  px                4      0.290864   1 C  py        
     5     -0.259072   1 C  pz               14     -0.236183   3 C  px        

 Vector   23  Occ=0.000000D+00  E= 5.744172D-02
              MO Center=  1.1D+00,  1.1D+00,  4.6D-01, r^2= 3.1D+00
   Bfn.  Coefficient  Atom+Function         Bfn.  Coefficient  Atom+Function  
  ----- ------------  ---------------      ----- ------------  ---------------
    35      1.274266   7 H  s                30     -0.912990   6 O  s         
    33     -0.368770   6 O  pz               22      0.357093   4 H  s         
    24      0.339049   5 H  s                46      0.331962   9 H  s         
    41     -0.313074   8 C  s                20     -0.301666   3 C  pz        
     8     -0.257832   1 C  py               19     -0.249887   3 C  py        

 Vector   24  Occ=0.000000D+00  E= 1.093284D-01
              MO Center= -6.8D-01, -4.9D-01, -4.2D-01, r^2= 7.9D+00
   Bfn.  Coefficient  Atom+Function         Bfn.  Coefficient  Atom+Function  
  ----- ------------  ---------------      ----- ------------  ---------------
    41      1.501906   8 C  s                48     -1.084130  10 H  s         
    46     -1.035142   9 H  s                11     -0.869107   2 H  s         
    24      0.653820   5 H  s                 7     -0.408435   1 C  px        
     6      0.315253   1 C  s                35      0.314157   7 H  s         
    17     -0.309116   3 C  s                 9     -0.291522   1 C  pz        

 Vector   25  Occ=0.000000D+00  E= 1.212351D-01
              MO Center= -9.9D-01,  1.3D+00, -6.0D-01, r^2= 8.1D+00
   Bfn.  Coefficient  Atom+Function         Bfn.  Coefficient  Atom+Function  
  ----- ------------  ---------------      ----- ------------  ---------------
    11      1.326768   2 H  s                22      1.087759   4 H  s         
     6     -0.994663   1 C  s                41      0.912575   8 C  s         
    48     -0.858862  10 H  s                17     -0.521902   3 C  s         
    46     -0.506103   9 H  s                 9      0.443111   1 C  pz        
    19     -0.423831   3 C  py                7      0.397459   1 C  px        

 Vector   26  Occ=0.000000D+00  E= 1.355114D-01
              MO Center=  6.7D-02,  2.2D+00,  8.0D-01, r^2= 6.4D+00
   Bfn.  Coefficient  Atom+Function         Bfn.  Coefficient  Atom+Function  
  ----- ------------  ---------------      ----- ------------  ---------------
    17      1.835509   3 C  s                24     -1.644350   5 H  s         
    22     -0.648740   4 H  s                30     -0.588101   6 O  s         
    48     -0.578589  10 H  s                41      0.558230   8 C  s         
    20      0.513581   3 C  pz                8     -0.411129   1 C  py        
     6      0.371275   1 C  s                35      0.338368   7 H  s         

 Vector   27  Occ=0.000000D+00  E= 1.748973D-01
              MO Center= -7.9D-01,  2.6D+00, -2.2D-01, r^2= 4.4D+00
   Bfn.  Coefficient  Atom+Function         Bfn.  Coefficient  Atom+Function  
  ----- ------------  ---------------      ----- ------------  ---------------
     6      1.829171   1 C  s                22      1.523943   4 H  s         
    11     -1.365025   2 H  s                17     -1.127036   3 C  s         
    18      0.773429   3 C  px               20      0.570228   3 C  pz        
    24     -0.463576   5 H  s                 9     -0.386192   1 C  pz        
    35     -0.369033   7 H  s                 7     -0.335170   1 C  px        

 Vector   28  Occ=0.000000D+00  E= 1.877671D-01
              MO Center= -7.6D-01, -1.7D+00, -3.5D-01, r^2= 4.4D+00
   Bfn.  Coefficient  Atom+Function         Bfn.  Coefficient  Atom+Function  
  ----- ------------  ---------------      ----- ------------  ---------------
    46      1.575022   9 H  s                48     -1.419372  10 H  s         
    43     -0.951795   8 C  py               44     -0.810565   8 C  pz        
     6      0.526781   1 C  s                24      0.427496   5 H  s         
    39     -0.392166   8 C  py               17     -0.375208   3 C  s         
    40     -0.327338   8 C  pz               35     -0.295625   7 H  s         

 Vector   29  Occ=0.000000D+00  E= 2.222067D-01
              MO Center= -4.2D-01, -2.5D+00, -1.5D-01, r^2= 2.6D+00
   Bfn.  Coefficient  Atom+Function         Bfn.  Coefficient  Atom+Function  
  ----- ------------  ---------------      ----- ------------  ---------------
    54      1.865524  11 O  s                41     -1.390651   8 C  s         
    42     -1.202272   8 C  px               43      1.137801   8 C  py        
    44     -0.933720   8 C  pz               55     -0.534062  11 O  px        
    56      0.475106  11 O  py               57     -0.430863  11 O  pz        
    46     -0.305383   9 H  s                48     -0.199812  10 H  s         

 Vector   30  Occ=0.000000D+00  E= 2.798417D-01
              MO Center=  7.6D-04,  2.0D+00,  1.8D-01, r^2= 4.4D+00
   Bfn.  Coefficient  Atom+Function         Bfn.  Coefficient  Atom+Function  
  ----- ------------  ---------------      ----- ------------  ---------------
     7      1.434441   1 C  px                6      1.417214   1 C  s         
    24      1.257949   5 H  s                18     -1.186252   3 C  px        
    22     -1.187604   4 H  s                30     -1.087331   6 O  s         
    19      1.024650   3 C  py               11      0.839289   2 H  s         
     9      0.766327   1 C  pz                8     -0.758999   1 C  py        

 Vector   31  Occ=0.000000D+00  E= 3.535052D-01
              MO Center= -2.3D-01,  2.6D+00,  3.8D-01, r^2= 3.8D+00
   Bfn.  Coefficient  Atom+Function         Bfn.  Coefficient  Atom+Function  
  ----- ------------  ---------------      ----- ------------  ---------------
    17     -3.047168   3 C  s                 6      2.969908   1 C  s         
    20      2.248902   3 C  pz               19      2.087233   3 C  py        
     8      2.043265   1 C  py                9      2.020825   1 C  pz        
    24     -0.730332   5 H  s                11      0.689328   2 H  s         
    35      0.600891   7 H  s                22     -0.414122   4 H  s         

 Vector   32  Occ=0.000000D+00  E= 5.111857D-01
              MO Center= -4.2D-01,  3.0D-02, -2.4D-01, r^2= 7.4D+00
   Bfn.  Coefficient  Atom+Function         Bfn.  Coefficient  Atom+Function  
  ----- ------------  ---------------      ----- ------------  ---------------
     8      0.881350   1 C  py                9      0.602889   1 C  pz        
    42     -0.584756   8 C  px               38      0.511442   8 C  px        
    17     -0.488145   3 C  s                44      0.462676   8 C  pz        
    40     -0.444561   8 C  pz               30      0.395871   6 O  s         
     4     -0.386599   1 C  py                7     -0.338700   1 C  px        


 center of mass
 --------------
 x =   0.04976087 y =  -0.12563446 z =  -0.00249140

 moments of inertia (a.u.)
 ------------------
        1574.919311835854           0.000000000000           0.000000000000
           0.000000000000         129.760010459184          -0.000000000000
           0.000000000000          -0.000000000000        1584.241775723982

     Multipole analysis of the density
     ---------------------------------

     L   x y z        total         alpha         beta         nuclear
     -   - - -        -----         -----         ----         -------
     0   0 0 0     -0.000000    -20.000000    -20.000000     40.000000

     1   1 0 0     -0.495054     -0.247527     -0.247527     -0.000000
     1   0 1 0      0.939350      0.469675      0.469675      0.000000
     1   0 0 1     -0.049966     -0.024983     -0.024983      0.000000

     2   2 0 0    -20.713379    -32.568488    -32.568488     44.423596
     2   1 1 0      3.012540      0.565301      0.565301      1.881937
     2   1 0 1      2.311096     -1.227153     -1.227153      4.765401
     2   0 2 0    -28.129839   -424.519219   -424.519219    820.908599
     2   0 1 1      3.481186     -4.705354     -4.705354     12.891894
     2   0 0 2    -22.270408    -30.800859    -30.800859     39.331310


 Parallel integral file used      19 records with       0 large values


 Task  times  cpu:        6.0s     wall:        6.1s
 Summary of allocated global arrays
-----------------------------------
  No active global arrays



                         GA Statistics for process    0
                         ------------------------------

       create   destroy   get      put      acc     scatter   gather  read&inc
calls:  168      168     1.09e+05 2302     7.56e+04    0        0     1918     
number of processes/call 1.00e+00 1.00e+00 1.00e+00 0.00e+00 0.00e+00
bytes total:             3.30e+07 4.44e+06 1.96e+07 0.00e+00 0.00e+00 1.53e+04
bytes remote:            0.00e+00 0.00e+00 0.00e+00 0.00e+00 0.00e+00 0.00e+00
Max memory consumed for GA by this process: 1013688 bytes
MA_summarize_allocated_blocks: starting scan ...
MA_summarize_allocated_blocks: scan completed: 0 heap blocks, 0 stack blocks
MA usage statistics:

	allocation statistics:
					      heap	     stack
					      ----	     -----
	current number of blocks	         0	         0
	maximum number of blocks	        23	        50
	current total bytes		         0	         0
	maximum total bytes		  31728544	  17939768
	maximum total K-bytes		     31729	     17940
	maximum total M-bytes		        32	        18


                                NWChem Input Module
                                -------------------





                                     CITATION
                                     --------
                Please cite the following reference when publishing
                           results obtained with NWChem:

                 M. Valiev, E.J. Bylaska, N. Govind, K. Kowalski,
              T.P. Straatsma, H.J.J. van Dam, D. Wang, J. Nieplocha,
                        E. Apra, T.L. Windus, W.A. de Jong
                 "NWChem: a comprehensive and scalable open-source
                  solution for large scale molecular simulations"
                      Comput. Phys. Commun. 181, 1477 (2010)
                           doi:10.1016/j.cpc.2010.04.018

                                      AUTHORS
                                      -------
          E. Apra, E. J. Bylaska, W. A. de Jong, N. Govind, K. Kowalski,
       T. P. Straatsma, M. Valiev, H. J. J. van Dam, D. Wang, T. L. Windus,
        J. Hammond, J. Autschbach, K. Bhaskaran-Nair, J. Brabec, K. Lopata,
        S. Krishnamoorthy, W. Ma, M. Klemm, O. Villa, Y. Chen, V. Anisimov,
    F. Aquino, S. Hirata, M. T. Hackler, T. Risthaus, M. Malagoli, A. Marenich,
   A. Otero-de-la-Roza, J. Mullin, P. Nichols, R. Peverati, J. Pittner, Y. Zhao,
         P.-D. Fan, A. Fonari, R. J. Harrison, M. Dupuis, D. Silverstein,
    D. M. A. Smith, J. Nieplocha, V. Tipparaju, M. Krishnan, B. E. Van Kuiken,
        A. Vazquez-Mayagoitia, L. Jensen, M. Swart, Q. Wu, T. Van Voorhis,
     A. A. Auer, M. Nooijen, L. D. Crosby, E. Brown, G. Cisneros, G. I. Fann,
   H. Fruchtl, J. Garza, K. Hirao, R. A. Kendall, J. A. Nichols, K. Tsemekhman,
    K. Wolinski, J. Anchell, D. E. Bernholdt, P. Borowski, T. Clark, D. Clerc,
   H. Dachsel, M. J. O. Deegan, K. Dyall, D. Elwood, E. Glendening, M. Gutowski,
   A. C. Hess, J. Jaffe, B. G. Johnson, J. Ju, R. Kobayashi, R. Kutteh, Z. Lin,
   R. Littlefield, X. Long, B. Meng, T. Nakajima, S. Niu, L. Pollack, M. Rosing,
   K. Glaesemann, G. Sandrone, M. Stave, H. Taylor, G. Thomas, J. H. van Lenthe,
                               A. T. Wong, Z. Zhang.

 Total times  cpu:        6.0s     wall:        6.1s
