 argument  1 = NW.nw
                                         
                                         


              Northwest Computational Chemistry Package (NWChem) 6.5
              ------------------------------------------------------


                    Environmental Molecular Sciences Laboratory
                       Pacific Northwest National Laboratory
                                Richland, WA 99352

                              Copyright (c) 1994-2014
                       Pacific Northwest National Laboratory
                            Battelle Memorial Institute

             NWChem is an open-source computational chemistry package
                        distributed under the terms of the
                      Educational Community License (ECL) 2.0
             A copy of the license is included with this distribution
                              in the LICENSE.TXT file

                                  ACKNOWLEDGMENT
                                  --------------

            This software and its documentation were developed at the
            EMSL at Pacific Northwest National Laboratory, a multiprogram
            national laboratory, operated for the U.S. Department of Energy
            by Battelle under Contract Number DE-AC05-76RL01830. Support
            for this work was provided by the Department of Energy Office
            of Biological and Environmental Research, Office of Basic
            Energy Sciences, and the Office of Advanced Scientific Computing.


           Job information
           ---------------

    hostname        = learnerPC
    program         = nwchem
    date            = Mon Mar  7 19:42:13 2016

    compiled        = Sun_Nov_23_23:34:13_2014
    source          = /build/buildd/nwchem-6.5+r26243
    nwchem branch   = 6.5
    nwchem revision = 26243
    ga revision     = 10506
    input           = NW.nw
    prefix          = NW.
    data base       = ./NW.db
    status          = restart
    nproc           =        1
    time left       =     -1s



           Memory information
           ------------------

    heap     =   13107196 doubles =    100.0 Mbytes
    stack    =   13107201 doubles =    100.0 Mbytes
    global   =   26214400 doubles =    200.0 Mbytes (distinct from heap & stack)
    total    =   52428797 doubles =    400.0 Mbytes
    verify   = yes
    hardfail = no 


           Directory information
           ---------------------

  0 permanent = .
  0 scratch   = .


           Previous task information
           -------------------------

    Theory    = scf                             
    Operation =                               
    Status    = ok                            
    Qmmm      = F
    Ignore    = F


           Geometries in the database
           --------------------------

       Name                              Natoms  Last Modified
       --------------------------------  ------  ------------------------
    1  geometry                              11  Mon Mar  7 19:42:12 2016  

  The geometry named "geometry" is the default for restart



           Basis sets in the database
           --------------------------

       Name                              Natoms  Last Modified
        --------------------------------  ------  ------------------------
    1  ao basis                               0  Mon Mar  7 19:42:12 2016  

  The basis set named "ao basis" is the default AO basis for restart




                                NWChem Input Module
                                -------------------



 Scaling coordinates for geometry "geometry" by  1.889725989
 (inverse scale =  0.529177249)

 C1  symmetry detected

          ------
          auto-z
          ------
  autoz: The atoms group into disjoint clusters
 cluster   1:    1    2    3    4    5    6    7
 cluster   2:    8    9   10   11
 Connecting clusters   1   2 via atoms    6   10 r = 3.00
  autoz: regenerating connections with new bonds


                             Geometry "geometry" -> ""
                             -------------------------

 Output coordinates in angstroms (scale by  1.889725989 to convert to a.u.)

  No.       Tag          Charge          X              Y              Z
 ---- ---------------- ---------- -------------- -------------- --------------
    1 C                    6.0000    -0.43538990     2.14949916     0.07709952
    2 H                    1.0000    -1.49539185     1.97551096     0.21924044
    3 C                    6.0000     0.11051158     3.35862855    -0.05670713
    4 H                    1.0000    -0.51465442     4.24566042    -0.02644834
    5 H                    1.0000     1.17541178     3.50234893    -0.19782603
    6 O                    8.0000     0.26569623     0.97899714     0.05268088
    7 H                    1.0000     1.20818206     1.18260950    -0.07636742
    8 C                    6.0000    -0.06945124    -2.70562816    -0.11331985
    9 H                    1.0000    -0.57522215    -2.28308765    -0.99614864
   10 H                    1.0000     0.35980182    -1.96990517     0.58539992
   11 O                    8.0000     0.01028503    -3.91251392     0.07853348

      Atomic Mass 
      ----------- 

      C                 12.000000
      H                  1.007825
      O                 15.994910


 Effective nuclear repulsion energy (a.u.)     140.7638921419

            Nuclear Dipole moment (a.u.) 
            ----------------------------
        X                 Y               Z
 ---------------- ---------------- ----------------
     0.0000000000    -0.0000000000     0.0000000000



                                Z-matrix (autoz)
                                -------- 

 Units are Angstrom for bonds and degrees for angles

      Type          Name      I     J     K     L     M      Value
      ----------- --------  ----- ----- ----- ----- ----- ----------
    1 Stretch                  1     2                       1.08355
    2 Stretch                  1     3                       1.33338
    3 Stretch                  1     6                       1.36462
    4 Stretch                  3     4                       1.08562
    5 Stretch                  3     5                       1.08378
    6 Stretch                  6    10                       2.99811
    7 Stretch                  6     7                       0.97283
    8 Stretch                  8     9                       1.10169
    9 Stretch                  8    10                       1.10171
   10 Stretch                  8    11                       1.22464
   11 Bend                     1     3     4               120.15710
   12 Bend                     1     3     5               122.38448
   13 Bend                     1     6    10               148.93875
   14 Bend                     1     6     7               108.69816
   15 Bend                     2     1     3               124.00653
   16 Bend                     2     1     6               111.54366
   17 Bend                     3     1     6               124.44981
   18 Bend                     4     3     5               117.45842
   19 Bend                     6    10     8               122.13543
   20 Bend                     7     6    10               101.47998
   21 Bend                     9     8    10               115.52881
   22 Bend                     9     8    11               122.23591
   23 Bend                    10     8    11               122.23528
   24 Torsion                  1     6    10     8          80.55842
   25 Torsion                  2     1     3     4           0.00000
   26 Torsion                  2     1     3     5        -179.99980
   27 Torsion                  2     1     6    10         -14.27152
   28 Torsion                  2     1     6     7         179.99890
   29 Torsion                  3     1     6    10         165.72846
   30 Torsion                  3     1     6     7          -0.00112
   31 Torsion                  4     3     1     6        -180.00000
   32 Torsion                  5     3     1     6           0.00022
   33 Torsion                  6    10     8     9          -2.69120
   34 Torsion                  6    10     8    11         177.30894
   35 Torsion                  7     6    10     8        -113.22516


            XYZ format geometry
            -------------------
    11
 geometry
 C                    -0.43538990     2.14949916     0.07709952
 H                    -1.49539185     1.97551096     0.21924044
 C                     0.11051158     3.35862855    -0.05670713
 H                    -0.51465442     4.24566042    -0.02644834
 H                     1.17541178     3.50234893    -0.19782603
 O                     0.26569623     0.97899714     0.05268088
 H                     1.20818206     1.18260950    -0.07636742
 C                    -0.06945124    -2.70562816    -0.11331985
 H                    -0.57522215    -2.28308765    -0.99614864
 H                     0.35980182    -1.96990517     0.58539992
 O                     0.01028503    -3.91251392     0.07853348

 ==============================================================================
                                internuclear distances
 ------------------------------------------------------------------------------
       center one      |      center two      | atomic units |  angstroms
 ------------------------------------------------------------------------------
    2 H                |   1 C                |     2.04761  |     1.08355
    3 C                |   1 C                |     2.51973  |     1.33338
    4 H                |   3 C                |     2.05153  |     1.08562
    5 H                |   3 C                |     2.04805  |     1.08378
    6 O                |   1 C                |     2.57876  |     1.36462
    7 H                |   6 O                |     1.83838  |     0.97283
    9 H                |   8 C                |     2.08190  |     1.10169
   10 H                |   8 C                |     2.08192  |     1.10171
   11 O                |   8 C                |     2.31423  |     1.22464
 ------------------------------------------------------------------------------
                         number of included internuclear distances:          9
 ==============================================================================



 ==============================================================================
                                 internuclear angles
 ------------------------------------------------------------------------------
        center 1       |       center 2       |       center 3       |  degrees
 ------------------------------------------------------------------------------
    2 H                |   1 C                |   3 C                |   124.01
    2 H                |   1 C                |   6 O                |   111.54
    3 C                |   1 C                |   6 O                |   124.45
    1 C                |   3 C                |   4 H                |   120.16
    1 C                |   3 C                |   5 H                |   122.38
    4 H                |   3 C                |   5 H                |   117.46
    1 C                |   6 O                |   7 H                |   108.70
    9 H                |   8 C                |  10 H                |   115.53
    9 H                |   8 C                |  11 O                |   122.24
   10 H                |   8 C                |  11 O                |   122.24
 ------------------------------------------------------------------------------
                            number of included internuclear angles:         10
 ==============================================================================





 Summary of "ao basis" -> "" (spherical)
 ------------------------------------------------------------------------------
       Tag                 Description            Shells   Functions and Types
 ---------------- ------------------------------  ------  ---------------------
 *                           6-31g                    on all atoms 


                      Basis "ao basis" -> "ao basis" (spherical)
                      -----
  C (Carbon)
  ----------
            Exponent  Coefficients 
       -------------- ---------------------------------------------------------
  1 S  3.04752490E+03  0.001835
  1 S  4.57369510E+02  0.014037
  1 S  1.03948690E+02  0.068843
  1 S  2.92101550E+01  0.232184
  1 S  9.28666300E+00  0.467941
  1 S  3.16392700E+00  0.362312

  2 S  7.86827240E+00 -0.119332
  2 S  1.88128850E+00 -0.160854
  2 S  5.44249300E-01  1.143456

  3 P  7.86827240E+00  0.068999
  3 P  1.88128850E+00  0.316424
  3 P  5.44249300E-01  0.744308

  4 S  1.68714400E-01  1.000000

  5 P  1.68714400E-01  1.000000

  H (Hydrogen)
  ------------
            Exponent  Coefficients 
       -------------- ---------------------------------------------------------
  1 S  1.87311370E+01  0.033495
  1 S  2.82539370E+00  0.234727
  1 S  6.40121700E-01  0.813757

  2 S  1.61277800E-01  1.000000

  O (Oxygen)
  ----------
            Exponent  Coefficients 
       -------------- ---------------------------------------------------------
  1 S  5.48467170E+03  0.001831
  1 S  8.25234950E+02  0.013950
  1 S  1.88046960E+02  0.068445
  1 S  5.29645000E+01  0.232714
  1 S  1.68975700E+01  0.470193
  1 S  5.79963530E+00  0.358521

  2 S  1.55396160E+01 -0.110778
  2 S  3.59993360E+00 -0.148026
  2 S  1.01376180E+00  1.130767

  3 P  1.55396160E+01  0.070874
  3 P  3.59993360E+00  0.339753
  3 P  1.01376180E+00  0.727159

  4 S  2.70005800E-01  1.000000

  5 P  2.70005800E-01  1.000000



 Summary of "ao basis" -> "ao basis" (spherical)
 ------------------------------------------------------------------------------
       Tag                 Description            Shells   Functions and Types
 ---------------- ------------------------------  ------  ---------------------
 C                           6-31g                   5        9   3s2p
 H                           6-31g                   2        2   2s
 O                           6-31g                   5        9   3s2p


                                 NWChem SCF Module
                                 -----------------



  ao basis        = "ao basis"
  functions       =    57
  atoms           =    11
  closed shells   =    20
  open shells     =     0
  charge          =   0.00
  wavefunction    = RHF 
  input vectors   = ./NW.movecs
  output vectors  = ./NW.movecs
  use symmetry    = F
  symmetry adapt  = F


 Summary of "ao basis" -> "ao basis" (spherical)
 ------------------------------------------------------------------------------
       Tag                 Description            Shells   Functions and Types
 ---------------- ------------------------------  ------  ---------------------
 C                           6-31g                   5        9   3s2p
 H                           6-31g                   2        2   2s
 O                           6-31g                   5        9   3s2p



 Forming initial guess at       0.0s


 Loading old vectors from job with title :




 Starting SCF solution at       0.0s



 ----------------------------------------------
         Quadratically convergent ROHF

 Convergence threshold     :          1.000E-04
 Maximum no. of iterations :           30
 Final Fock-matrix accuracy:          1.000E-07
 ----------------------------------------------


 Integral file          = ./NW.aoints.0
 Record size in doubles =  65536        No. of integs per rec  =  43688
 Max. records in memory =     45        Max. records in file   = 200227
 No. of bits per label  =      8        No. of bits per value  =     64


 #quartets = 1.327D+05 #integrals = 6.585D+05 #direct =  0.0% #cached =100.0%


              iter       energy          gnorm     gmax       time
             ----- ------------------- --------- --------- --------
                 1     -260.5219216799  5.56D+00  1.09D+00      0.3
                 2     -264.9123542439  2.73D+00  9.36D-01      0.3
                 3     -265.9212573065  2.86D+00  1.09D+00      0.4
                 4     -266.4626856424  1.42D+00  4.50D-01      0.4
                 5     -266.5984204860  6.52D-01  1.92D-01      0.4
                 6     -266.6295814928  3.05D-01  9.22D-02      0.4
                 7     -266.6363828634  2.04D-02  1.32D-02      0.4
                 8     -266.6365612493  6.24D-04  3.03D-04      0.5
                 9     -266.6365612815  9.90D-06  4.91D-06      0.5


       Final RHF  results 
       ------------------ 

         Total SCF energy =   -266.636561281477
      One-electron energy =   -642.108176564923
      Two-electron energy =    234.707723141531
 Nuclear repulsion energy =    140.763892141915

        Time for solution =      0.5s


             Final eigenvalues
             -----------------

              1      
    1  -20.6074
    2  -20.5826
    3  -11.3416
    4  -11.3213
    5  -11.2370
    6   -1.4239
    7   -1.4046
    8   -1.0411
    9   -0.8610
   10   -0.8436
   11   -0.6887
   12   -0.6853
   13   -0.6812
   14   -0.6271
   15   -0.5896
   16   -0.5549
   17   -0.5493
   18   -0.5147
   19   -0.4295
   20   -0.3620
   21    0.1337
   22    0.1778
   23    0.2000
   24    0.2538
   25    0.2610
   26    0.2805
   27    0.3239
   28    0.3418
   29    0.3816
   30    0.4535

                       ROHF Final Molecular Orbital Analysis
                       -------------------------------------

 Vector    6  Occ=2.000000D+00  E=-1.423865D+00
              MO Center=  2.7D-01,  1.2D+00,  3.8D-02, r^2= 5.9D-01
   Bfn.  Coefficient  Atom+Function         Bfn.  Coefficient  Atom+Function  
  ----- ------------  ---------------      ----- ------------  ---------------
    30      0.505970   6 O  s                26      0.443082   6 O  s         
    25     -0.205250   6 O  s                 2      0.155758   1 C  s         

 Vector    7  Occ=2.000000D+00  E=-1.404619D+00
              MO Center= -1.2D-02, -3.6D+00,  2.4D-02, r^2= 5.0D-01
   Bfn.  Coefficient  Atom+Function         Bfn.  Coefficient  Atom+Function  
  ----- ------------  ---------------      ----- ------------  ---------------
    50      0.439956  11 O  s                54      0.430843  11 O  s         
    37      0.224230   8 C  s                49     -0.197897  11 O  s         
    39     -0.177380   8 C  py               52      0.154522  11 O  py        

 Vector    8  Occ=2.000000D+00  E=-1.041106D+00
              MO Center= -1.0D-01,  2.7D+00,  4.7D-03, r^2= 1.3D+00
   Bfn.  Coefficient  Atom+Function         Bfn.  Coefficient  Atom+Function  
  ----- ------------  ---------------      ----- ------------  ---------------
    13      0.314953   3 C  s                 2      0.287892   1 C  s         
    17      0.228133   3 C  s                 6      0.200124   1 C  s         
    30     -0.171247   6 O  s                12     -0.161254   3 C  s         
     4      0.154634   1 C  py        

 Vector    9  Occ=2.000000D+00  E=-8.610338D-01
              MO Center= -7.6D-02, -2.6D+00, -1.3D-01, r^2= 1.3D+00
   Bfn.  Coefficient  Atom+Function         Bfn.  Coefficient  Atom+Function  
  ----- ------------  ---------------      ----- ------------  ---------------
    37      0.359294   8 C  s                41      0.332068   8 C  s         
    54     -0.289488  11 O  s                50     -0.202805  11 O  s         
    45      0.183190   9 H  s                47      0.181196  10 H  s         
    39      0.175054   8 C  py               36     -0.163658   8 C  s         

 Vector   10  Occ=2.000000D+00  E=-8.436144D-01
              MO Center= -6.0D-03,  2.0D+00,  3.2D-02, r^2= 2.2D+00
   Bfn.  Coefficient  Atom+Function         Bfn.  Coefficient  Atom+Function  
  ----- ------------  ---------------      ----- ------------  ---------------
    27      0.316626   6 O  px                2     -0.214791   1 C  s         
    17      0.196790   3 C  s                 4      0.190758   1 C  py        
     6     -0.184904   1 C  s                13      0.185563   3 C  s         
    34      0.180362   7 H  s                31      0.163470   6 O  px        
    10     -0.150348   2 H  s         

 Vector   11  Occ=2.000000D+00  E=-6.886641D-01
              MO Center=  2.1D-01,  2.5D+00, -2.7D-02, r^2= 2.8D+00
   Bfn.  Coefficient  Atom+Function         Bfn.  Coefficient  Atom+Function  
  ----- ------------  ---------------      ----- ------------  ---------------
    27     -0.304868   6 O  px               15      0.280788   3 C  py        
     4     -0.220900   1 C  py               31     -0.183701   6 O  px        
    17      0.169901   3 C  s                34     -0.161120   7 H  s         
    23      0.159075   5 H  s         

 Vector   12  Occ=2.000000D+00  E=-6.853414D-01
              MO Center= -6.1D-02, -2.4D+00, -6.8D-02, r^2= 3.6D+00
   Bfn.  Coefficient  Atom+Function         Bfn.  Coefficient  Atom+Function  
  ----- ------------  ---------------      ----- ------------  ---------------
    40      0.337336   8 C  pz               53      0.276335  11 O  pz        
    38      0.199713   8 C  px               45     -0.172570   9 H  s         
    47      0.171691  10 H  s                51      0.163702  11 O  px        
    44      0.150645   8 C  pz        

 Vector   13  Occ=2.000000D+00  E=-6.812015D-01
              MO Center= -2.0D-01,  1.7D+00,  3.6D-02, r^2= 4.2D+00
   Bfn.  Coefficient  Atom+Function         Bfn.  Coefficient  Atom+Function  
  ----- ------------  ---------------      ----- ------------  ---------------
     3      0.315681   1 C  px               28      0.302968   6 O  py        
    32      0.199778   6 O  py               14      0.186998   3 C  px        
    10     -0.161887   2 H  s         

 Vector   14  Occ=2.000000D+00  E=-6.270525D-01
              MO Center= -6.9D-03, -3.6D+00,  3.7D-02, r^2= 1.3D+00
   Bfn.  Coefficient  Atom+Function         Bfn.  Coefficient  Atom+Function  
  ----- ------------  ---------------      ----- ------------  ---------------
    52      0.498360  11 O  py               39     -0.387449   8 C  py        
    54     -0.300747  11 O  s                56      0.273968  11 O  py        
    50     -0.163492  11 O  s         

 Vector   15  Occ=2.000000D+00  E=-5.896365D-01
              MO Center=  1.4D-01,  1.3D+00,  5.3D-02, r^2= 1.1D+00
   Bfn.  Coefficient  Atom+Function         Bfn.  Coefficient  Atom+Function  
  ----- ------------  ---------------      ----- ------------  ---------------
    29      0.558230   6 O  pz               33      0.408412   6 O  pz        
     5      0.220510   1 C  pz        

 Vector   16  Occ=2.000000D+00  E=-5.549222D-01
              MO Center= -9.5D-02,  2.6D+00,  1.0D-02, r^2= 2.5D+00
   Bfn.  Coefficient  Atom+Function         Bfn.  Coefficient  Atom+Function  
  ----- ------------  ---------------      ----- ------------  ---------------
    14      0.321306   3 C  px                3     -0.271433   1 C  px        
    10      0.223877   2 H  s                23      0.213656   5 H  s         
    18      0.192765   3 C  px               27      0.188601   6 O  px        
    24      0.170539   5 H  s                11      0.156754   2 H  s         
     7     -0.154909   1 C  px        

 Vector   17  Occ=2.000000D+00  E=-5.492678D-01
              MO Center=  7.2D-02,  2.1D+00,  1.6D-02, r^2= 2.9D+00
   Bfn.  Coefficient  Atom+Function         Bfn.  Coefficient  Atom+Function  
  ----- ------------  ---------------      ----- ------------  ---------------
    28      0.425252   6 O  py               32      0.328847   6 O  py        
    15      0.286467   3 C  py                4     -0.215163   1 C  py        
    21      0.202840   4 H  s                22      0.168766   4 H  s         

 Vector   18  Occ=2.000000D+00  E=-5.146595D-01
              MO Center= -1.7D-02, -3.5D+00,  1.3D-02, r^2= 1.0D+00
   Bfn.  Coefficient  Atom+Function         Bfn.  Coefficient  Atom+Function  
  ----- ------------  ---------------      ----- ------------  ---------------
    51      0.421355  11 O  px               55      0.306936  11 O  px        
    38      0.290404   8 C  px               53     -0.247171  11 O  pz        
    42      0.191154   8 C  px               57     -0.179984  11 O  pz        
    40     -0.170409   8 C  pz        

 Vector   19  Occ=2.000000D+00  E=-4.294680D-01
              MO Center= -2.8D-02, -3.3D+00, -1.3D-02, r^2= 1.6D+00
   Bfn.  Coefficient  Atom+Function         Bfn.  Coefficient  Atom+Function  
  ----- ------------  ---------------      ----- ------------  ---------------
    53      0.474872  11 O  pz               57      0.376666  11 O  pz        
    51      0.281031  11 O  px               46      0.238302   9 H  s         
    48     -0.230693  10 H  s                55      0.223120  11 O  px        
    45      0.197639   9 H  s                47     -0.198110  10 H  s         
    40     -0.182102   8 C  pz        

 Vector   20  Occ=2.000000D+00  E=-3.620283D-01
              MO Center= -3.1D-02,  2.6D+00,  1.7D-03, r^2= 1.9D+00
   Bfn.  Coefficient  Atom+Function         Bfn.  Coefficient  Atom+Function  
  ----- ------------  ---------------      ----- ------------  ---------------
    16      0.390842   3 C  pz               20      0.345630   3 C  pz        
     5      0.314216   1 C  pz               29     -0.292240   6 O  pz        
    33     -0.280994   6 O  pz                9      0.238357   1 C  pz        

 Vector   21  Occ=0.000000D+00  E= 1.336937D-01
              MO Center= -4.6D-02, -3.0D+00, -6.0D-02, r^2= 1.6D+00
   Bfn.  Coefficient  Atom+Function         Bfn.  Coefficient  Atom+Function  
  ----- ------------  ---------------      ----- ------------  ---------------
    42      0.598142   8 C  px               55     -0.461323  11 O  px        
    38      0.355966   8 C  px               44     -0.353065   8 C  pz        
    51     -0.337912  11 O  px               57      0.271096  11 O  pz        
    40     -0.209435   8 C  pz               53      0.198496  11 O  pz        

 Vector   22  Occ=0.000000D+00  E= 1.777986D-01
              MO Center= -1.9D-01,  2.7D+00,  1.7D-02, r^2= 2.2D+00
   Bfn.  Coefficient  Atom+Function         Bfn.  Coefficient  Atom+Function  
  ----- ------------  ---------------      ----- ------------  ---------------
     9      0.769673   1 C  pz               20     -0.717841   3 C  pz        
     5      0.420605   1 C  pz               16     -0.317872   3 C  pz        
    33     -0.264380   6 O  pz               29     -0.171874   6 O  pz        

 Vector   23  Occ=0.000000D+00  E= 1.999675D-01
              MO Center=  1.2D+00,  1.3D+00, -8.0D-02, r^2= 3.5D+00
   Bfn.  Coefficient  Atom+Function         Bfn.  Coefficient  Atom+Function  
  ----- ------------  ---------------      ----- ------------  ---------------
    35      1.337292   7 H  s                30     -0.929871   6 O  s         
    41     -0.509332   8 C  s                24      0.466094   5 H  s         
    31     -0.442963   6 O  px               22      0.411077   4 H  s         
    48      0.402427  10 H  s                19     -0.366918   3 C  py        
    17     -0.311667   3 C  s                 8     -0.308959   1 C  py        

 Vector   24  Occ=0.000000D+00  E= 2.537870D-01
              MO Center= -2.6D-01,  1.1D-01, -1.4D-01, r^2= 9.1D+00
   Bfn.  Coefficient  Atom+Function         Bfn.  Coefficient  Atom+Function  
  ----- ------------  ---------------      ----- ------------  ---------------
    41      1.436639   8 C  s                46     -1.117886   9 H  s         
    11     -1.064437   2 H  s                48     -0.990040  10 H  s         
    24      0.821262   5 H  s                 7     -0.585783   1 C  px        
     6      0.508090   1 C  s                43      0.500666   8 C  py        
    18     -0.392527   3 C  px               22     -0.355035   4 H  s         

 Vector   25  Occ=0.000000D+00  E= 2.609696D-01
              MO Center= -9.3D-01,  1.7D+00,  1.1D-02, r^2= 8.8D+00
   Bfn.  Coefficient  Atom+Function         Bfn.  Coefficient  Atom+Function  
  ----- ------------  ---------------      ----- ------------  ---------------
    11      1.414075   2 H  s                22      1.178524   4 H  s         
     6     -1.104356   1 C  s                41      0.961473   8 C  s         
    17     -0.893422   3 C  s                46     -0.798217   9 H  s         
    48     -0.697605  10 H  s                 7      0.650622   1 C  px        
    19     -0.568135   3 C  py               43      0.422886   8 C  py        

 Vector   26  Occ=0.000000D+00  E= 2.805034D-01
              MO Center=  6.7D-01,  2.3D+00, -2.4D-01, r^2= 7.8D+00
   Bfn.  Coefficient  Atom+Function         Bfn.  Coefficient  Atom+Function  
  ----- ------------  ---------------      ----- ------------  ---------------
    17      1.888062   3 C  s                24     -1.706297   5 H  s         
    46     -0.795482   9 H  s                30     -0.645209   6 O  s         
    41      0.628703   8 C  s                18      0.587670   3 C  px        
     8     -0.546282   1 C  py               22     -0.513420   4 H  s         
    35      0.496672   7 H  s                43      0.399236   8 C  py        

 Vector   27  Occ=0.000000D+00  E= 3.238538D-01
              MO Center= -8.3D-01,  3.1D+00,  6.3D-02, r^2= 5.1D+00
   Bfn.  Coefficient  Atom+Function         Bfn.  Coefficient  Atom+Function  
  ----- ------------  ---------------      ----- ------------  ---------------
    22      1.786542   4 H  s                 6      1.712361   1 C  s         
    11     -1.510363   2 H  s                18      1.254983   3 C  px        
    17     -1.028600   3 C  s                 7     -0.773810   1 C  px        
    24     -0.745086   5 H  s                19     -0.456997   3 C  py        
    35     -0.345620   7 H  s                31      0.317955   6 O  px        

 Vector   28  Occ=0.000000D+00  E= 3.418045D-01
              MO Center= -5.5D-02, -1.7D+00, -1.1D-01, r^2= 4.5D+00
   Bfn.  Coefficient  Atom+Function         Bfn.  Coefficient  Atom+Function  
  ----- ------------  ---------------      ----- ------------  ---------------
    48      1.773251  10 H  s                46     -1.556201   9 H  s         
    44     -1.219778   8 C  pz               42     -0.726271   8 C  px        
    43     -0.442460   8 C  py               40     -0.369533   8 C  pz        
    24      0.362767   5 H  s                22     -0.359505   4 H  s         
    11      0.353255   2 H  s                57      0.326302  11 O  pz        

 Vector   29  Occ=0.000000D+00  E= 3.816267D-01
              MO Center= -2.2D-03, -2.4D+00, -9.1D-02, r^2= 4.4D+00
   Bfn.  Coefficient  Atom+Function         Bfn.  Coefficient  Atom+Function  
  ----- ------------  ---------------      ----- ------------  ---------------
    54      1.896746  11 O  s                43      1.842744   8 C  py        
    41     -1.538897   8 C  s                56      0.827884  11 O  py        
     6      0.531226   1 C  s                 7      0.435810   1 C  px        
    17     -0.419099   3 C  s                24      0.398775   5 H  s         
    19      0.377055   3 C  py               44     -0.334809   8 C  pz        

 Vector   30  Occ=0.000000D+00  E= 4.535442D-01
              MO Center=  6.0D-02,  2.1D+00,  9.4D-03, r^2= 5.1D+00
   Bfn.  Coefficient  Atom+Function         Bfn.  Coefficient  Atom+Function  
  ----- ------------  ---------------      ----- ------------  ---------------
     6      1.859568   1 C  s                 7      1.704798   1 C  px        
    30     -1.335032   6 O  s                19      1.202390   3 C  py        
    24      1.177758   5 H  s                 8     -1.106061   1 C  py        
    18     -1.009295   3 C  px               22     -0.978664   4 H  s         
    32     -0.799241   6 O  py               17     -0.734196   3 C  s         

 Vector   31  Occ=0.000000D+00  E= 5.119429D-01
              MO Center=  1.3D-02,  3.0D+00, -2.7D-02, r^2= 4.0D+00
   Bfn.  Coefficient  Atom+Function         Bfn.  Coefficient  Atom+Function  
  ----- ------------  ---------------      ----- ------------  ---------------
    17     -3.188891   3 C  s                 6      3.007383   1 C  s         
     8      2.847323   1 C  py               19      2.848212   3 C  py        
    18      1.412810   3 C  px                7      1.132389   1 C  px        
    24     -0.768481   5 H  s                11      0.764609   2 H  s         
    35      0.687876   7 H  s                31     -0.559576   6 O  px        


 center of mass
 --------------
 x =  -0.00404034 y =  -0.16810577 z =   0.01244637

 moments of inertia (a.u.)
 ------------------
        2089.515922194627          -0.000000000000           0.000000000000
          -0.000000000000          40.358679562562          -0.000000000000
           0.000000000000          -0.000000000000        2116.706213222390

  Mulliken analysis of the total density
  --------------------------------------

    Atom       Charge   Shell Charges
 -----------   ------   -------------------------------------------------------
    1 C    6     5.77   2.00  0.71  1.94  0.41  0.71
    2 H    1     0.78   0.54  0.25
    3 C    6     6.45   2.00  0.67  2.03  0.59  1.16
    4 H    1     0.82   0.53  0.29
    5 H    1     0.84   0.53  0.31
    6 O    8     8.75   2.00  0.89  2.90  1.04  1.92
    7 H    1     0.58   0.49  0.09
    8 C    6     5.85   2.00  0.74  1.92  0.50  0.69
    9 H    1     0.85   0.54  0.31
   10 H    1     0.83   0.54  0.29
   11 O    8     8.47   2.00  0.93  2.81  1.02  1.72

       Multipole analysis of the density wrt the origin
       ------------------------------------------------

     L   x y z        total         open         nuclear
     -   - - -        -----         ----         -------
     0   0 0 0     -0.000000      0.000000     40.000000

     1   1 0 0      0.231665      0.000000      0.000000
     1   0 1 0      1.853878      0.000000     -0.000000
     1   0 0 1     -0.253317      0.000000      0.000000

     2   2 0 0    -18.968427      0.000000     27.168324
     2   1 1 0      0.910764      0.000000      1.817845
     2   1 0 1     -0.513558      0.000000      0.254447
     2   0 2 0    -35.849976      0.000000   1121.824306
     2   0 1 1      1.069897      0.000000      1.087264
     2   0 0 2    -24.012275      0.000000      5.829009


 Parallel integral file used      16 records with       0 large values


 Task  times  cpu:        0.5s     wall:        0.5s
 Summary of allocated global arrays
-----------------------------------
  No active global arrays



                         GA Statistics for process    0
                         ------------------------------

       create   destroy   get      put      acc     scatter   gather  read&inc
calls:  451      451     7996     4726     6238        0        0       37     
number of processes/call 1.00e+00 1.00e+00 1.00e+00 0.00e+00 0.00e+00
bytes total:             1.70e+07 1.25e+07 2.22e+06 0.00e+00 0.00e+00 2.96e+02
bytes remote:            0.00e+00 0.00e+00 0.00e+00 0.00e+00 0.00e+00 0.00e+00
Max memory consumed for GA by this process: 376008 bytes
MA_summarize_allocated_blocks: starting scan ...
MA_summarize_allocated_blocks: scan completed: 0 heap blocks, 0 stack blocks
MA usage statistics:

	allocation statistics:
					      heap	     stack
					      ----	     -----
	current number of blocks	         0	         0
	maximum number of blocks	        17	        14
	current total bytes		         0	         0
	maximum total bytes		  23662816	  16001832
	maximum total K-bytes		     23663	     16002
	maximum total M-bytes		        24	        17


                                NWChem Input Module
                                -------------------





                                     CITATION
                                     --------
                Please cite the following reference when publishing
                           results obtained with NWChem:

                 M. Valiev, E.J. Bylaska, N. Govind, K. Kowalski,
              T.P. Straatsma, H.J.J. van Dam, D. Wang, J. Nieplocha,
                        E. Apra, T.L. Windus, W.A. de Jong
                 "NWChem: a comprehensive and scalable open-source
                  solution for large scale molecular simulations"
                      Comput. Phys. Commun. 181, 1477 (2010)
                           doi:10.1016/j.cpc.2010.04.018

                                      AUTHORS
                                      -------
          E. Apra, E. J. Bylaska, W. A. de Jong, N. Govind, K. Kowalski,
       T. P. Straatsma, M. Valiev, H. J. J. van Dam, D. Wang, T. L. Windus,
        J. Hammond, J. Autschbach, K. Bhaskaran-Nair, J. Brabec, K. Lopata,
        S. Krishnamoorthy, W. Ma, M. Klemm, O. Villa, Y. Chen, V. Anisimov,
    F. Aquino, S. Hirata, M. T. Hackler, T. Risthaus, M. Malagoli, A. Marenich,
   A. Otero-de-la-Roza, J. Mullin, P. Nichols, R. Peverati, J. Pittner, Y. Zhao,
         P.-D. Fan, A. Fonari, R. J. Harrison, M. Dupuis, D. Silverstein,
    D. M. A. Smith, J. Nieplocha, V. Tipparaju, M. Krishnan, B. E. Van Kuiken,
        A. Vazquez-Mayagoitia, L. Jensen, M. Swart, Q. Wu, T. Van Voorhis,
     A. A. Auer, M. Nooijen, L. D. Crosby, E. Brown, G. Cisneros, G. I. Fann,
   H. Fruchtl, J. Garza, K. Hirao, R. A. Kendall, J. A. Nichols, K. Tsemekhman,
    K. Wolinski, J. Anchell, D. E. Bernholdt, P. Borowski, T. Clark, D. Clerc,
   H. Dachsel, M. J. O. Deegan, K. Dyall, D. Elwood, E. Glendening, M. Gutowski,
   A. C. Hess, J. Jaffe, B. G. Johnson, J. Ju, R. Kobayashi, R. Kutteh, Z. Lin,
   R. Littlefield, X. Long, B. Meng, T. Nakajima, S. Niu, L. Pollack, M. Rosing,
   K. Glaesemann, G. Sandrone, M. Stave, H. Taylor, G. Thomas, J. H. van Lenthe,
                               A. T. Wong, Z. Zhang.

 Total times  cpu:        0.5s     wall:        0.5s
