 argument  1 = NW.nw
                                         
                                         


              Northwest Computational Chemistry Package (NWChem) 6.5
              ------------------------------------------------------


                    Environmental Molecular Sciences Laboratory
                       Pacific Northwest National Laboratory
                                Richland, WA 99352

                              Copyright (c) 1994-2014
                       Pacific Northwest National Laboratory
                            Battelle Memorial Institute

             NWChem is an open-source computational chemistry package
                        distributed under the terms of the
                      Educational Community License (ECL) 2.0
             A copy of the license is included with this distribution
                              in the LICENSE.TXT file

                                  ACKNOWLEDGMENT
                                  --------------

            This software and its documentation were developed at the
            EMSL at Pacific Northwest National Laboratory, a multiprogram
            national laboratory, operated for the U.S. Department of Energy
            by Battelle under Contract Number DE-AC05-76RL01830. Support
            for this work was provided by the Department of Energy Office
            of Biological and Environmental Research, Office of Basic
            Energy Sciences, and the Office of Advanced Scientific Computing.


           Job information
           ---------------

    hostname        = learnerPC
    program         = nwchem
    date            = Wed Apr  6 19:10:23 2016

    compiled        = Sun_Nov_23_23:34:13_2014
    source          = /build/buildd/nwchem-6.5+r26243
    nwchem branch   = 6.5
    nwchem revision = 26243
    ga revision     = 10506
    input           = NW.nw
    prefix          = NW.
    data base       = ./NW.db
    status          = restart
    nproc           =        1
    time left       =     -1s



           Memory information
           ------------------

    heap     =   13107198 doubles =    100.0 Mbytes
    stack    =   13107195 doubles =    100.0 Mbytes
    global   =   26214400 doubles =    200.0 Mbytes (distinct from heap & stack)
    total    =   52428793 doubles =    400.0 Mbytes
    verify   = yes
    hardfail = no 


           Directory information
           ---------------------

  0 permanent = .
  0 scratch   = .


           Previous task information
           -------------------------

    Theory    = dft                             
    Operation = energy                        
    Status    = ok                            
    Qmmm      = F
    Ignore    = F


           Geometries in the database
           --------------------------

       Name                              Natoms  Last Modified
       --------------------------------  ------  ------------------------
    1  geometry                              11  Wed Apr  6 19:10:17 2016  

  The geometry named "geometry" is the default for restart



           Basis sets in the database
           --------------------------

       Name                              Natoms  Last Modified
        --------------------------------  ------  ------------------------
    1  ao basis                               0  Wed Apr  6 19:10:17 2016  

  The basis set named "ao basis" is the default AO basis for restart




                                NWChem Input Module
                                -------------------



 Scaling coordinates for geometry "geometry" by  1.889725989
 (inverse scale =  0.529177249)

 C1  symmetry detected

          ------
          auto-z
          ------
  autoz: The atoms group into disjoint clusters
 cluster   1:    1    2    3    4    5    6    7
 cluster   2:    8    9   10   11
 Connecting clusters   1   2 via atoms    2    9 r = 2.30
  autoz: regenerating connections with new bonds


                             Geometry "geometry" -> ""
                             -------------------------

 Output coordinates in angstroms (scale by  1.889725989 to convert to a.u.)

  No.       Tag          Charge          X              Y              Z
 ---- ---------------- ---------- -------------- -------------- --------------
    1 C                    6.0000    -0.14884590     1.16498334    -0.47054464
    2 H                    1.0000    -0.07082198     0.97749373    -1.53489423
    3 C                    6.0000     0.50668334     2.13632667     0.16560015
    4 H                    1.0000     1.16770021     2.79904933    -0.38433540
    5 H                    1.0000     0.40899216     2.30040168     1.23242649
    6 O                    8.0000    -0.99935384     0.28445170     0.13235940
    7 H                    1.0000    -1.03831768     0.48936563     1.08256107
    8 C                    6.0000     0.66002122    -1.36986202     0.11577401
    9 H                    1.0000     1.12638680    -0.79676468    -0.70141261
   10 H                    1.0000     0.89978441    -1.02527569     1.13436606
   11 O                    8.0000    -0.07575565    -2.32607145    -0.09407046

      Atomic Mass 
      ----------- 

      C                 12.000000
      H                  1.007825
      O                 15.994910


 Effective nuclear repulsion energy (a.u.)     166.6598473796

            Nuclear Dipole moment (a.u.) 
            ----------------------------
        X                 Y               Z
 ---------------- ---------------- ----------------
    -0.0000000000     0.0000000000     0.0000000000



                                Z-matrix (autoz)
                                -------- 

 Units are Angstrom for bonds and degrees for angles

      Type          Name      I     J     K     L     M      Value
      ----------- --------  ----- ----- ----- ----- ----- ----------
    1 Stretch                  1     2                       1.08355
    2 Stretch                  1     3                       1.33338
    3 Stretch                  1     6                       1.36462
    4 Stretch                  2     9                       2.29695
    5 Stretch                  3     4                       1.08562
    6 Stretch                  3     5                       1.08378
    7 Stretch                  6     7                       0.97283
    8 Stretch                  8     9                       1.10169
    9 Stretch                  8    10                       1.10171
   10 Stretch                  8    11                       1.22464
   11 Bend                     1     2     9                79.32457
   12 Bend                     1     3     4               120.15711
   13 Bend                     1     3     5               122.38448
   14 Bend                     1     6     7               108.69816
   15 Bend                     2     9     8               116.76529
   16 Bend                     2     1     3               124.00653
   17 Bend                     2     1     6               111.54366
   18 Bend                     3     1     6               124.44981
   19 Bend                     4     3     5               117.45842
   20 Bend                     9     8    10               115.52881
   21 Bend                     9     8    11               122.23591
   22 Bend                    10     8    11               122.23528
   23 Torsion                  1     2     9     8          48.12642
   24 Torsion                  2     9     8    10         -90.94169
   25 Torsion                  2     9     8    11          89.05816
   26 Torsion                  2     1     3     4           0.00000
   27 Torsion                  2     1     3     5        -179.99981
   28 Torsion                  2     1     6     7         179.99891
   29 Torsion                  3     1     2     9         106.90995
   30 Torsion                  3     1     6     7          -0.00113
   31 Torsion                  4     3     1     6        -180.00000
   32 Torsion                  5     3     1     6           0.00023
   33 Torsion                  6     1     2     9         -73.09008


            XYZ format geometry
            -------------------
    11
 geometry
 C                    -0.14884590     1.16498334    -0.47054464
 H                    -0.07082198     0.97749373    -1.53489423
 C                     0.50668334     2.13632667     0.16560015
 H                     1.16770021     2.79904933    -0.38433540
 H                     0.40899216     2.30040168     1.23242649
 O                    -0.99935384     0.28445170     0.13235940
 H                    -1.03831768     0.48936563     1.08256107
 C                     0.66002122    -1.36986202     0.11577401
 H                     1.12638680    -0.79676468    -0.70141261
 H                     0.89978441    -1.02527569     1.13436606
 O                    -0.07575565    -2.32607145    -0.09407046

 ==============================================================================
                                internuclear distances
 ------------------------------------------------------------------------------
       center one      |      center two      | atomic units |  angstroms
 ------------------------------------------------------------------------------
    2 H                |   1 C                |     2.04761  |     1.08355
    3 C                |   1 C                |     2.51973  |     1.33338
    4 H                |   3 C                |     2.05153  |     1.08562
    5 H                |   3 C                |     2.04805  |     1.08378
    6 O                |   1 C                |     2.57876  |     1.36462
    7 H                |   6 O                |     1.83838  |     0.97283
    9 H                |   8 C                |     2.08190  |     1.10169
   10 H                |   8 C                |     2.08192  |     1.10171
   11 O                |   8 C                |     2.31423  |     1.22464
 ------------------------------------------------------------------------------
                         number of included internuclear distances:          9
 ==============================================================================



 ==============================================================================
                                 internuclear angles
 ------------------------------------------------------------------------------
        center 1       |       center 2       |       center 3       |  degrees
 ------------------------------------------------------------------------------
    2 H                |   1 C                |   3 C                |   124.01
    2 H                |   1 C                |   6 O                |   111.54
    3 C                |   1 C                |   6 O                |   124.45
    1 C                |   3 C                |   4 H                |   120.16
    1 C                |   3 C                |   5 H                |   122.38
    4 H                |   3 C                |   5 H                |   117.46
    1 C                |   6 O                |   7 H                |   108.70
    9 H                |   8 C                |  10 H                |   115.53
    9 H                |   8 C                |  11 O                |   122.24
   10 H                |   8 C                |  11 O                |   122.24
 ------------------------------------------------------------------------------
                            number of included internuclear angles:         10
 ==============================================================================





 Summary of "ao basis" -> "" (cartesian)
 ------------------------------------------------------------------------------
       Tag                 Description            Shells   Functions and Types
 ---------------- ------------------------------  ------  ---------------------
 *                           6-31g                    on all atoms 



                                 NWChem DFT Module
                                 -----------------


                      Basis "ao basis" -> "ao basis" (cartesian)
                      -----
  C (Carbon)
  ----------
            Exponent  Coefficients 
       -------------- ---------------------------------------------------------
  1 S  3.04752490E+03  0.001835
  1 S  4.57369510E+02  0.014037
  1 S  1.03948690E+02  0.068843
  1 S  2.92101550E+01  0.232184
  1 S  9.28666300E+00  0.467941
  1 S  3.16392700E+00  0.362312

  2 S  7.86827240E+00 -0.119332
  2 S  1.88128850E+00 -0.160854
  2 S  5.44249300E-01  1.143456

  3 P  7.86827240E+00  0.068999
  3 P  1.88128850E+00  0.316424
  3 P  5.44249300E-01  0.744308

  4 S  1.68714400E-01  1.000000

  5 P  1.68714400E-01  1.000000

  H (Hydrogen)
  ------------
            Exponent  Coefficients 
       -------------- ---------------------------------------------------------
  1 S  1.87311370E+01  0.033495
  1 S  2.82539370E+00  0.234727
  1 S  6.40121700E-01  0.813757

  2 S  1.61277800E-01  1.000000

  O (Oxygen)
  ----------
            Exponent  Coefficients 
       -------------- ---------------------------------------------------------
  1 S  5.48467170E+03  0.001831
  1 S  8.25234950E+02  0.013950
  1 S  1.88046960E+02  0.068445
  1 S  5.29645000E+01  0.232714
  1 S  1.68975700E+01  0.470193
  1 S  5.79963530E+00  0.358521

  2 S  1.55396160E+01 -0.110778
  2 S  3.59993360E+00 -0.148026
  2 S  1.01376180E+00  1.130767

  3 P  1.55396160E+01  0.070874
  3 P  3.59993360E+00  0.339753
  3 P  1.01376180E+00  0.727159

  4 S  2.70005800E-01  1.000000

  5 P  2.70005800E-01  1.000000



 Summary of "ao basis" -> "ao basis" (cartesian)
 ------------------------------------------------------------------------------
       Tag                 Description            Shells   Functions and Types
 ---------------- ------------------------------  ------  ---------------------
 C                           6-31g                   5        9   3s2p
 H                           6-31g                   2        2   2s
 O                           6-31g                   5        9   3s2p




 Summary of "ao basis" -> "ao basis" (cartesian)
 ------------------------------------------------------------------------------
       Tag                 Description            Shells   Functions and Types
 ---------------- ------------------------------  ------  ---------------------
 C                           6-31g                   5        9   3s2p
 H                           6-31g                   2        2   2s
 O                           6-31g                   5        9   3s2p


  Caching 1-el integrals 

            General Information
            -------------------
          SCF calculation type: DFT
          Wavefunction type:  closed shell.
          No. of atoms     :    11
          No. of electrons :    40
           Alpha electrons :    20
            Beta electrons :    20
          Charge           :     0
          Spin multiplicity:     1
          Use of symmetry is: off; symmetry adaption is: off
          Maximum number of iterations:  30
          AO basis - number of functions:    57
                     number of shells:    37
          Convergence on energy requested: 1.00D-06
          Convergence on density requested: 1.00D-05
          Convergence on gradient requested: 5.00D-04

              XC Information
              --------------
                         B3LYP Method XC Potential
                     Hartree-Fock (Exact) Exchange  0.200          
                        Slater Exchange Functional  0.800 local    
                    Becke 1988 Exchange Functional  0.720 non-local
              Lee-Yang-Parr Correlation Functional  0.810          
                  VWN I RPA Correlation Functional  0.190 local    

             Grid Information
             ----------------
          Grid used for XC integration:  medium    
          Radial quadrature: Mura-Knowles        
          Angular quadrature: Lebedev. 
          Tag              B.-S. Rad. Rad. Pts. Rad. Cut. Ang. Pts.
          ---              ---------- --------- --------- ---------
          C                   0.70       49          11.0       434
          H                   0.35       45          11.0       434
          O                   0.60       49          12.0       434
          Grid pruning is: on 
          Number of quadrature shells:   515
          Spatial weights used:  Erf1

          Convergence Information
          -----------------------
          Convergence aids based upon iterative change in 
          total energy or number of iterations. 
          Levelshifting, if invoked, occurs when the 
          HOMO/LUMO gap drops below (HL_TOL): 1.00D-02
          DIIS, if invoked, will attempt to extrapolate 
          using up to (NFOCK): 10 stored Fock matrices.

                    Damping( 0%)  Levelshifting(0.5)       DIIS
                  --------------- ------------------- ---------------
          dE  on:    start            ASAP                start   
          dE off:    2 iters         30 iters            30 iters 


      Screening Tolerance Information
      -------------------------------
          Density screening/tol_rho: 1.00D-10
          AO Gaussian exp screening on grid/accAOfunc:  14
          CD Gaussian exp screening on grid/accCDfunc:  20
          XC Gaussian exp screening on grid/accXCfunc:  20
          Schwarz screening/accCoul: 1.00D-08


 Loading old vectors from job with title :



   Time after variat. SCF:      0.0
   Time prior to 1st pass:      0.0

 Integral file          = ./NW.aoints.0
 Record size in doubles =  65536        No. of integs per rec  =  43688
 Max. records in memory =     45        Max. records in file   = 193763
 No. of bits per label  =      8        No. of bits per value  =     64


 #quartets = 2.052D+05 #integrals = 1.161D+06 #direct =  0.0% #cached =100.0%


 Grid_pts file          = ./NW.gridpts.0
 Record size in doubles =  12289        No. of grid_pts per rec  =   3070
 Max. records in memory =     82        Max. recs in file   =   1033323


           Memory utilization after 1st SCF pass: 
           Heap Space remaining (MW):        9.14             9141118
          Stack Space remaining (MW):       13.11            13106588

   convergence    iter        energy       DeltaE   RMS-Dens  Diis-err    time
 ---------------- ----- ----------------- --------- --------- ---------  ------
 d= 0,ls=0.0,diis     1   -263.5632070561 -4.30D+02  1.19D-01  1.06D+01     1.3
 d= 0,ls=0.0,diis     2   -266.6420391158 -3.08D+00  6.85D-02  1.26D+01     2.0
