 argument  1 = NW.nw
                                         
                                         


              Northwest Computational Chemistry Package (NWChem) 6.5
              ------------------------------------------------------


                    Environmental Molecular Sciences Laboratory
                       Pacific Northwest National Laboratory
                                Richland, WA 99352

                              Copyright (c) 1994-2014
                       Pacific Northwest National Laboratory
                            Battelle Memorial Institute

             NWChem is an open-source computational chemistry package
                        distributed under the terms of the
                      Educational Community License (ECL) 2.0
             A copy of the license is included with this distribution
                              in the LICENSE.TXT file

                                  ACKNOWLEDGMENT
                                  --------------

            This software and its documentation were developed at the
            EMSL at Pacific Northwest National Laboratory, a multiprogram
            national laboratory, operated for the U.S. Department of Energy
            by Battelle under Contract Number DE-AC05-76RL01830. Support
            for this work was provided by the Department of Energy Office
            of Biological and Environmental Research, Office of Basic
            Energy Sciences, and the Office of Advanced Scientific Computing.


           Job information
           ---------------

    hostname        = learnerPC
    program         = nwchem
    date            = Mon Mar 14 14:28:55 2016

    compiled        = Sun_Nov_23_23:34:13_2014
    source          = /build/buildd/nwchem-6.5+r26243
    nwchem branch   = 6.5
    nwchem revision = 26243
    ga revision     = 10506
    input           = NW.nw
    prefix          = NW.
    data base       = ./NW.db
    status          = restart
    nproc           =        1
    time left       =     -1s



           Memory information
           ------------------

    heap     =   13107198 doubles =    100.0 Mbytes
    stack    =   13107195 doubles =    100.0 Mbytes
    global   =   26214400 doubles =    200.0 Mbytes (distinct from heap & stack)
    total    =   52428793 doubles =    400.0 Mbytes
    verify   = yes
    hardfail = no 


           Directory information
           ---------------------

  0 permanent = .
  0 scratch   = .


           Previous task information
           -------------------------

    Theory    = dft                             
    Operation = energy                        
    Status    = ok                            
    Qmmm      = F
    Ignore    = F


           Geometries in the database
           --------------------------

       Name                              Natoms  Last Modified
       --------------------------------  ------  ------------------------
    1  geometry                              18  Mon Mar 14 14:28:33 2016  

  The geometry named "geometry" is the default for restart



           Basis sets in the database
           --------------------------

       Name                              Natoms  Last Modified
        --------------------------------  ------  ------------------------
    1  ao basis                               0  Mon Mar 14 14:28:33 2016  

  The basis set named "ao basis" is the default AO basis for restart




                                NWChem Input Module
                                -------------------



 Scaling coordinates for geometry "geometry" by  1.889725989
 (inverse scale =  0.529177249)

 C1  symmetry detected

          ------
          auto-z
          ------
  autoz: The atoms group into disjoint clusters
 cluster   1:    1    2    3    4    5    6    7    8    9   10   11
                12
 cluster   2:   13   14   15   16   17   18
 Connecting clusters   1   2 via atoms   10   16 r = 3.00
  autoz: regenerating connections with new bonds


                             Geometry "geometry" -> ""
                             -------------------------

 Output coordinates in angstroms (scale by  1.889725989 to convert to a.u.)

  No.       Tag          Charge          X              Y              Z
 ---- ---------------- ---------- -------------- -------------- --------------
    1 C                    6.0000    -0.43858801    -1.04121492     1.26847156
    2 O                    8.0000    -0.62512200    -2.15544996     1.74947478
    3 H                    1.0000    -0.76736909    -0.14607710     1.82539890
    4 C                    6.0000     0.13731168    -0.74934967    -0.09752932
    5 Cl                  17.0000     1.28060248    -2.04070410    -0.55971076
    6 H                    1.0000     0.71994188     0.17517359    -0.03248204
    7 C                    6.0000    -0.97999554    -0.63060483    -1.13856223
    8 H                    1.0000    -1.57452095    -1.55105641    -1.18361813
    9 H                    1.0000    -0.53241405    -0.48637994    -2.12915043
   10 N                    7.0000    -1.88733120     0.50085940    -0.89405202
   11 H                    1.0000    -2.59130811     0.23310312    -0.20257782
   12 H                    1.0000    -2.42478814     0.67684590    -1.74657144
   13 O                    8.0000     1.27534683     3.17234076     0.27638831
   14 H                    1.0000     1.95063808     3.86930834     0.33703108
   15 C                    6.0000     0.01352668     3.81429059     0.27820616
   16 H                    1.0000    -0.77073072     3.05664678     0.21086104
   17 H                    1.0000    -0.05621943     4.48517489    -0.58153256
   18 H                    1.0000    -0.10748060     4.37936126     1.20566662

      Atomic Mass 
      ----------- 

      C                 12.000000
      O                 15.994910
      H                  1.007825
      Cl                34.968850
      N                 14.003070


 Effective nuclear repulsion energy (a.u.)     436.0077902272

            Nuclear Dipole moment (a.u.) 
            ----------------------------
        X                 Y               Z
 ---------------- ---------------- ----------------
     0.0000000000    -0.0000000000    -0.0000000000



                                Z-matrix (autoz)
                                -------- 

 Units are Angstrom for bonds and degrees for angles

      Type          Name      I     J     K     L     M      Value
      ----------- --------  ----- ----- ----- ----- ----- ----------
    1 Stretch                  1     2                       1.22788
    2 Stretch                  1     3                       1.10433
    3 Stretch                  1     4                       1.51090
    4 Stretch                  4     5                       1.78559
    5 Stretch                  4     6                       1.09473
    6 Stretch                  4     7                       1.53174
    7 Stretch                  7     8                       1.09669
    8 Stretch                  7     9                       1.09654
    9 Stretch                  7    10                       1.47080
   10 Stretch                 10    16                       2.99995
   11 Stretch                 10    11                       1.02245
   12 Stretch                 10    12                       1.02304
   13 Stretch                 13    14                       0.97235
   14 Stretch                 13    15                       1.41573
   15 Stretch                 15    16                       1.09253
   16 Stretch                 15    17                       1.09275
   17 Stretch                 15    18                       1.09276
   18 Bend                     1     4     5               109.77744
   19 Bend                     1     4     6               108.19670
   20 Bend                     1     4     7               110.57319
   21 Bend                     2     1     3               119.52267
   22 Bend                     2     1     4               125.97054
   23 Bend                     3     1     4               114.38397
   24 Bend                     4     7     8               110.99537
   25 Bend                     4     7     9               109.05223
   26 Bend                     4     7    10               113.36834
   27 Bend                     5     4     6               106.58135
   28 Bend                     5     4     7               110.31597
   29 Bend                     6     4     7               111.29255
   30 Bend                     7    10    16               119.14376
   31 Bend                     7    10    11               109.61610
   32 Bend                     7    10    12               108.53533
   33 Bend                     8     7     9               107.13082
   34 Bend                     8     7    10               108.54592
   35 Bend                     9     7    10               107.50579
   36 Bend                    10    16    15               151.72583
   37 Bend                    11    10    16               103.31414
   38 Bend                    11    10    12               104.29402
   39 Bend                    12    10    16               110.84891
   40 Bend                    13    15    16               108.98179
   41 Bend                    13    15    17               109.52775
   42 Bend                    13    15    18               109.52766
   43 Bend                    14    13    15               107.09116
   44 Bend                    16    15    17               109.35621
   45 Bend                    16    15    18               109.35536
   46 Bend                    17    15    18               110.07279
   47 Torsion                  1     4     7     8         -58.43640
   48 Torsion                  1     4     7     9        -176.23204
   49 Torsion                  1     4     7    10          64.03955
   50 Torsion                  2     1     4     5         -30.47690
   51 Torsion                  2     1     4     6        -146.41688
   52 Torsion                  2     1     4     7          91.46497
   53 Torsion                  3     1     4     5         153.59878
   54 Torsion                  3     1     4     6          37.65880
   55 Torsion                  3     1     4     7         -84.45935
   56 Torsion                  4     7    10    16          35.96303
   57 Torsion                  4     7    10    11         -82.63375
   58 Torsion                  4     7    10    12         164.04135
   59 Torsion                  5     4     7     8          63.18832
   60 Torsion                  5     4     7     9         -54.60732
   61 Torsion                  5     4     7    10        -174.33573
   62 Torsion                  6     4     7     8        -178.71951
   63 Torsion                  6     4     7     9          63.48485
   64 Torsion                  6     4     7    10         -56.24356
   65 Torsion                  7    10    16    15          37.55113
   66 Torsion                  8     7    10    16         159.78714
   67 Torsion                  8     7    10    11          41.19035
   68 Torsion                  8     7    10    12         -72.13454
   69 Torsion                  9     7    10    16         -84.64420
   70 Torsion                  9     7    10    11         156.75901
   71 Torsion                  9     7    10    12          43.43412
   72 Torsion                 10    16    15    13         -40.32518
   73 Torsion                 10    16    15    17          79.37747
   74 Torsion                 10    16    15    18        -160.02721
   75 Torsion                 11    10    16    15         159.35074
   76 Torsion                 12    10    16    15         -89.44951
   77 Torsion                 14    13    15    16        -179.99909
   78 Torsion                 14    13    15    17          60.40463
   79 Torsion                 14    13    15    18         -60.40390


            XYZ format geometry
            -------------------
    18
 geometry
 C                    -0.43858801    -1.04121492     1.26847156
 O                    -0.62512200    -2.15544996     1.74947478
 H                    -0.76736909    -0.14607710     1.82539890
 C                     0.13731168    -0.74934967    -0.09752932
 Cl                    1.28060248    -2.04070410    -0.55971076
 H                     0.71994188     0.17517359    -0.03248204
 C                    -0.97999554    -0.63060483    -1.13856223
 H                    -1.57452095    -1.55105641    -1.18361813
 H                    -0.53241405    -0.48637994    -2.12915043
 N                    -1.88733120     0.50085940    -0.89405202
 H                    -2.59130811     0.23310312    -0.20257782
 H                    -2.42478814     0.67684590    -1.74657144
 O                     1.27534683     3.17234076     0.27638831
 H                     1.95063808     3.86930834     0.33703108
 C                     0.01352668     3.81429059     0.27820616
 H                    -0.77073072     3.05664678     0.21086104
 H                    -0.05621943     4.48517489    -0.58153256
 H                    -0.10748060     4.37936126     1.20566662

 ==============================================================================
                                internuclear distances
 ------------------------------------------------------------------------------
       center one      |      center two      | atomic units |  angstroms
 ------------------------------------------------------------------------------
    2 O                |   1 C                |     2.32035  |     1.22788
    3 H                |   1 C                |     2.08687  |     1.10433
    4 C                |   1 C                |     2.85518  |     1.51090
    5 Cl               |   4 C                |     3.37427  |     1.78559
    6 H                |   4 C                |     2.06874  |     1.09473
    7 C                |   4 C                |     2.89457  |     1.53174
    8 H                |   7 C                |     2.07244  |     1.09669
    9 H                |   7 C                |     2.07216  |     1.09654
   10 N                |   7 C                |     2.77941  |     1.47080
   11 H                |  10 N                |     1.93216  |     1.02245
   12 H                |  10 N                |     1.93327  |     1.02304
   14 H                |  13 O                |     1.83747  |     0.97235
   15 C                |  13 O                |     2.67534  |     1.41573
   16 H                |  15 C                |     2.06458  |     1.09253
   17 H                |  15 C                |     2.06500  |     1.09275
   18 H                |  15 C                |     2.06502  |     1.09276
 ------------------------------------------------------------------------------
                         number of included internuclear distances:         16
 ==============================================================================



 ==============================================================================
                                 internuclear angles
 ------------------------------------------------------------------------------
        center 1       |       center 2       |       center 3       |  degrees
 ------------------------------------------------------------------------------
    2 O                |   1 C                |   3 H                |   119.52
    2 O                |   1 C                |   4 C                |   125.97
    3 H                |   1 C                |   4 C                |   114.38
    1 C                |   4 C                |   5 Cl               |   109.78
    1 C                |   4 C                |   6 H                |   108.20
    1 C                |   4 C                |   7 C                |   110.57
    5 Cl               |   4 C                |   6 H                |   106.58
    5 Cl               |   4 C                |   7 C                |   110.32
    6 H                |   4 C                |   7 C                |   111.29
    4 C                |   7 C                |   8 H                |   111.00
    4 C                |   7 C                |   9 H                |   109.05
    4 C                |   7 C                |  10 N                |   113.37
    8 H                |   7 C                |   9 H                |   107.13
    8 H                |   7 C                |  10 N                |   108.55
    9 H                |   7 C                |  10 N                |   107.51
    7 C                |  10 N                |  11 H                |   109.62
    7 C                |  10 N                |  12 H                |   108.54
   11 H                |  10 N                |  12 H                |   104.29
   14 H                |  13 O                |  15 C                |   107.09
   13 O                |  15 C                |  16 H                |   108.98
   13 O                |  15 C                |  17 H                |   109.53
   13 O                |  15 C                |  18 H                |   109.53
   16 H                |  15 C                |  17 H                |   109.36
   16 H                |  15 C                |  18 H                |   109.36
   17 H                |  15 C                |  18 H                |   110.07
 ------------------------------------------------------------------------------
                            number of included internuclear angles:         25
 ==============================================================================





 Summary of "ao basis" -> "" (cartesian)
 ------------------------------------------------------------------------------
       Tag                 Description            Shells   Functions and Types
 ---------------- ------------------------------  ------  ---------------------
 *                           6-31g                    on all atoms 



                                 NWChem DFT Module
                                 -----------------


                      Basis "ao basis" -> "ao basis" (cartesian)
                      -----
  C (Carbon)
  ----------
            Exponent  Coefficients 
       -------------- ---------------------------------------------------------
  1 S  3.04752490E+03  0.001835
  1 S  4.57369510E+02  0.014037
  1 S  1.03948690E+02  0.068843
  1 S  2.92101550E+01  0.232184
  1 S  9.28666300E+00  0.467941
  1 S  3.16392700E+00  0.362312

  2 S  7.86827240E+00 -0.119332
  2 S  1.88128850E+00 -0.160854
  2 S  5.44249300E-01  1.143456

  3 P  7.86827240E+00  0.068999
  3 P  1.88128850E+00  0.316424
  3 P  5.44249300E-01  0.744308

  4 S  1.68714400E-01  1.000000

  5 P  1.68714400E-01  1.000000

  O (Oxygen)
  ----------
            Exponent  Coefficients 
       -------------- ---------------------------------------------------------
  1 S  5.48467170E+03  0.001831
  1 S  8.25234950E+02  0.013950
  1 S  1.88046960E+02  0.068445
  1 S  5.29645000E+01  0.232714
  1 S  1.68975700E+01  0.470193
  1 S  5.79963530E+00  0.358521

  2 S  1.55396160E+01 -0.110778
  2 S  3.59993360E+00 -0.148026
  2 S  1.01376180E+00  1.130767

  3 P  1.55396160E+01  0.070874
  3 P  3.59993360E+00  0.339753
  3 P  1.01376180E+00  0.727159

  4 S  2.70005800E-01  1.000000

  5 P  2.70005800E-01  1.000000

  H (Hydrogen)
  ------------
            Exponent  Coefficients 
       -------------- ---------------------------------------------------------
  1 S  1.87311370E+01  0.033495
  1 S  2.82539370E+00  0.234727
  1 S  6.40121700E-01  0.813757

  2 S  1.61277800E-01  1.000000

  Cl (Chlorine)
  -------------
            Exponent  Coefficients 
       -------------- ---------------------------------------------------------
  1 S  2.51801000E+04  0.001833
  1 S  3.78035000E+03  0.014034
  1 S  8.60474000E+02  0.069097
  1 S  2.42145000E+02  0.237452
  1 S  7.73349000E+01  0.483034
  1 S  2.62470000E+01  0.339856

  2 S  4.91765000E+02 -0.002297
  2 S  1.16984000E+02 -0.030714
  2 S  3.74153000E+01 -0.112528
  2 S  1.37834000E+01  0.045016
  2 S  5.45215000E+00  0.589353
  2 S  2.22588000E+00  0.465206

  3 P  4.91765000E+02  0.003989
  3 P  1.16984000E+02  0.030318
  3 P  3.74153000E+01  0.129880
  3 P  1.37834000E+01  0.327951
  3 P  5.45215000E+00  0.453527
  3 P  2.22588000E+00  0.252154

  4 S  3.18649000E+00 -0.251830
  4 S  1.14427000E+00  0.061589
  4 S  4.20377000E-01  1.060180

  5 P  3.18649000E+00 -0.014299
  5 P  1.14427000E+00  0.323572
  5 P  4.20377000E-01  0.743507

  6 S  1.42657000E-01  1.000000

  7 P  1.42657000E-01  1.000000

  N (Nitrogen)
  ------------
            Exponent  Coefficients 
       -------------- ---------------------------------------------------------
  1 S  4.17351100E+03  0.001835
  1 S  6.27457900E+02  0.013995
  1 S  1.42902100E+02  0.068587
  1 S  4.02343300E+01  0.232241
  1 S  1.28202100E+01  0.469070
  1 S  4.39043700E+00  0.360455

  2 S  1.16263580E+01 -0.114961
  2 S  2.71628000E+00 -0.169118
  2 S  7.72218000E-01  1.145852

  3 P  1.16263580E+01  0.067580
  3 P  2.71628000E+00  0.323907
  3 P  7.72218000E-01  0.740895

  4 S  2.12031300E-01  1.000000

  5 P  2.12031300E-01  1.000000



 Summary of "ao basis" -> "ao basis" (cartesian)
 ------------------------------------------------------------------------------
       Tag                 Description            Shells   Functions and Types
 ---------------- ------------------------------  ------  ---------------------
 C                           6-31g                   5        9   3s2p
 O                           6-31g                   5        9   3s2p
 H                           6-31g                   2        2   2s
 Cl                          6-31g                   7       13   4s3p
 N                           6-31g                   5        9   3s2p




 Summary of "ao basis" -> "ao basis" (cartesian)
 ------------------------------------------------------------------------------
       Tag                 Description            Shells   Functions and Types
 ---------------- ------------------------------  ------  ---------------------
 C                           6-31g                   5        9   3s2p
 O                           6-31g                   5        9   3s2p
 H                           6-31g                   2        2   2s
 Cl                          6-31g                   7       13   4s3p
 N                           6-31g                   5        9   3s2p


  Caching 1-el integrals 

            General Information
            -------------------
          SCF calculation type: DFT
          Wavefunction type:  closed shell.
          No. of atoms     :    18
          No. of electrons :    74
           Alpha electrons :    37
            Beta electrons :    37
          Charge           :     0
          Spin multiplicity:     1
          Use of symmetry is: off; symmetry adaption is: off
          Maximum number of iterations:  30
          AO basis - number of functions:    96
                     number of shells:    62
          Convergence on energy requested: 1.00D-06
          Convergence on density requested: 1.00D-05
          Convergence on gradient requested: 5.00D-04

              XC Information
              --------------
                         B3LYP Method XC Potential
                     Hartree-Fock (Exact) Exchange  0.200          
                        Slater Exchange Functional  0.800 local    
                    Becke 1988 Exchange Functional  0.720 non-local
              Lee-Yang-Parr Correlation Functional  0.810          
                  VWN I RPA Correlation Functional  0.190 local    

             Grid Information
             ----------------
          Grid used for XC integration:  medium    
          Radial quadrature: Mura-Knowles        
          Angular quadrature: Lebedev. 
          Tag              B.-S. Rad. Rad. Pts. Rad. Cut. Ang. Pts.
          ---              ---------- --------- --------- ---------
          C                   0.70       49          14.0       434
          O                   0.60       49          14.0       434
          H                   0.35       45          15.0       434
          Cl                  1.00       88          14.0       590
          N                   0.65       49          12.0       434
          Grid pruning is: on 
          Number of quadrature shells:   881
          Spatial weights used:  Erf1

          Convergence Information
          -----------------------
          Convergence aids based upon iterative change in 
          total energy or number of iterations. 
          Levelshifting, if invoked, occurs when the 
          HOMO/LUMO gap drops below (HL_TOL): 1.00D-02
          DIIS, if invoked, will attempt to extrapolate 
          using up to (NFOCK): 10 stored Fock matrices.

                    Damping( 0%)  Levelshifting(0.5)       DIIS
                  --------------- ------------------- ---------------
          dE  on:    start            ASAP                start   
          dE off:    2 iters         30 iters            30 iters 


      Screening Tolerance Information
      -------------------------------
          Density screening/tol_rho: 1.00D-10
          AO Gaussian exp screening on grid/accAOfunc:  14
          CD Gaussian exp screening on grid/accCDfunc:  20
          XC Gaussian exp screening on grid/accXCfunc:  20
          Schwarz screening/accCoul: 1.00D-08


 Loading old vectors from job with title :



   Time after variat. SCF:      0.1
   Time prior to 1st pass:      0.1

 Integral file          = ./NW.aoints.0
 Record size in doubles =  65536        No. of integs per rec  =  43688
 Max. records in memory =    339        Max. records in file   = 199725
 No. of bits per label  =      8        No. of bits per value  =     64


 #quartets = 1.114D+06 #integrals = 6.040D+06 #direct =  0.0% #cached =100.0%


 Grid_pts file          = ./NW.gridpts.0
 Record size in doubles =  12289        No. of grid_pts per rec  =   3070
 Max. records in memory =    188        Max. recs in file   =   1065119


           Memory utilization after 1st SCF pass: 
           Heap Space remaining (MW):        0.00                   0
          Stack Space remaining (MW):       13.11            13106148

   convergence    iter        energy       DeltaE   RMS-Dens  Diis-err    time
 ---------------- ----- ----------------- --------- --------- ---------  ------
 d= 0,ls=0.0,diis     1   -814.4820403000 -1.25D+03  1.01D-01  1.87D+01     4.8
 d= 0,ls=0.0,diis     2   -822.3267430286 -7.84D+00  4.43D-02  1.00D+01     6.5
