 argument  1 = NW.nw
                                         
                                         


              Northwest Computational Chemistry Package (NWChem) 6.5
              ------------------------------------------------------


                    Environmental Molecular Sciences Laboratory
                       Pacific Northwest National Laboratory
                                Richland, WA 99352

                              Copyright (c) 1994-2014
                       Pacific Northwest National Laboratory
                            Battelle Memorial Institute

             NWChem is an open-source computational chemistry package
                        distributed under the terms of the
                      Educational Community License (ECL) 2.0
             A copy of the license is included with this distribution
                              in the LICENSE.TXT file

                                  ACKNOWLEDGMENT
                                  --------------

            This software and its documentation were developed at the
            EMSL at Pacific Northwest National Laboratory, a multiprogram
            national laboratory, operated for the U.S. Department of Energy
            by Battelle under Contract Number DE-AC05-76RL01830. Support
            for this work was provided by the Department of Energy Office
            of Biological and Environmental Research, Office of Basic
            Energy Sciences, and the Office of Advanced Scientific Computing.


           Job information
           ---------------

    hostname        = learnerPC
    program         = nwchem
    date            = Sat Mar 12 20:37:07 2016

    compiled        = Sun_Nov_23_23:34:13_2014
    source          = /build/buildd/nwchem-6.5+r26243
    nwchem branch   = 6.5
    nwchem revision = 26243
    ga revision     = 10506
    input           = NW.nw
    prefix          = NW.
    data base       = ./NW.db
    status          = restart
    nproc           =        1
    time left       =     -1s



           Memory information
           ------------------

    heap     =   13107198 doubles =    100.0 Mbytes
    stack    =   13107195 doubles =    100.0 Mbytes
    global   =   26214400 doubles =    200.0 Mbytes (distinct from heap & stack)
    total    =   52428793 doubles =    400.0 Mbytes
    verify   = yes
    hardfail = no 


           Directory information
           ---------------------

  0 permanent = .
  0 scratch   = .


           Previous task information
           -------------------------

    Theory    = dft                             
    Operation = energy                        
    Status    = ok                            
    Qmmm      = F
    Ignore    = F


           Geometries in the database
           --------------------------

       Name                              Natoms  Last Modified
       --------------------------------  ------  ------------------------
    1  geometry                              18  Sat Mar 12 20:36:50 2016  

  The geometry named "geometry" is the default for restart



           Basis sets in the database
           --------------------------

       Name                              Natoms  Last Modified
        --------------------------------  ------  ------------------------
    1  ao basis                               0  Sat Mar 12 20:36:50 2016  

  The basis set named "ao basis" is the default AO basis for restart




                                NWChem Input Module
                                -------------------



 Scaling coordinates for geometry "geometry" by  1.889725989
 (inverse scale =  0.529177249)

 C1  symmetry detected

          ------
          auto-z
          ------
  autoz: The atoms group into disjoint clusters
 cluster   1:    1    2    3    4    5    6    7    8    9   10   11
                12
 cluster   2:   13   14   15   16   17   18
 Clusters   1   2 closest atoms are    9   17 r = 3.00 ... close but too far?
     1 autoz failed with cvr_scaling = 1.2 changing to 1.3
  autoz: The atoms group into disjoint clusters
 cluster   1:    1    2    3    4    5    6    7    8    9   10   11
                12
 cluster   2:   13   14   15   16   17   18
 Connecting clusters   1   2 via atoms    9   17 r = 3.00
  autoz: regenerating connections with new bonds


                             Geometry "geometry" -> ""
                             -------------------------

 Output coordinates in angstroms (scale by  1.889725989 to convert to a.u.)

  No.       Tag          Charge          X              Y              Z
 ---- ---------------- ---------- -------------- -------------- --------------
    1 C                    6.0000     0.60853237     2.19096542     0.87889759
    2 O                    8.0000     0.39621787     3.35700727     0.55804245
    3 H                    1.0000     1.38438186     1.96643049     1.63201000
    4 C                    6.0000    -0.04099501     0.97049703     0.26949197
    5 Cl                  17.0000    -1.68752786     1.37753097    -0.28869699
    6 H                    1.0000    -0.15483107     0.21593605     1.05441971
    7 C                    6.0000     0.79925269     0.43873033    -0.89559743
    8 H                    1.0000     0.92918567     1.20577026    -1.66857129
    9 H                    1.0000     0.27324865    -0.40322142    -1.36124960
   10 N                    7.0000     2.12745996    -0.04173437    -0.48538561
   11 H                    1.0000     2.77111843     0.74931683    -0.41220540
   12 H                    1.0000     2.51423280    -0.61303489    -1.24079478
   13 O                    8.0000    -0.13599958    -4.24255443     0.97153160
   14 H                    1.0000    -0.38393037    -3.38745410     1.36241944
   15 C                    6.0000    -0.40233058    -4.15845074    -0.41637599
   16 H                    1.0000    -0.13384254    -5.10673690    -0.88784906
   17 H                    1.0000     0.19396223    -3.35443842    -0.85466823
   18 H                    1.0000    -1.46627492    -3.96452885    -0.57305184

      Atomic Mass 
      ----------- 

      C                 12.000000
      O                 15.994910
      H                  1.007825
      Cl                34.968850
      N                 14.003070


 Effective nuclear repulsion energy (a.u.)     424.1369871713

            Nuclear Dipole moment (a.u.) 
            ----------------------------
        X                 Y               Z
 ---------------- ---------------- ----------------
     0.0000000000    -0.0000000000     0.0000000000



                                Z-matrix (autoz)
                                -------- 

 Units are Angstrom for bonds and degrees for angles

      Type          Name      I     J     K     L     M      Value
      ----------- --------  ----- ----- ----- ----- ----- ----------
    1 Stretch                  1     2                       1.22788
    2 Stretch                  1     3                       1.10433
    3 Stretch                  1     4                       1.51090
    4 Stretch                  4     5                       1.78559
    5 Stretch                  4     6                       1.09473
    6 Stretch                  4     7                       1.53174
    7 Stretch                  7     8                       1.09669
    8 Stretch                  7     9                       1.09654
    9 Stretch                  7    10                       1.47080
   10 Stretch                  9    17                       2.99543
   11 Stretch                 10    11                       1.02245
   12 Stretch                 10    12                       1.02304
   13 Stretch                 13    14                       0.97235
   14 Stretch                 13    15                       1.41573
   15 Stretch                 15    16                       1.09253
   16 Stretch                 15    17                       1.09275
   17 Stretch                 15    18                       1.09276
   18 Bend                     1     4     5               109.77744
   19 Bend                     1     4     6               108.19670
   20 Bend                     1     4     7               110.57319
   21 Bend                     2     1     3               119.52267
   22 Bend                     2     1     4               125.97053
   23 Bend                     3     1     4               114.38398
   24 Bend                     4     7     8               110.99537
   25 Bend                     4     7     9               109.05222
   26 Bend                     4     7    10               113.36833
   27 Bend                     5     4     6               106.58135
   28 Bend                     5     4     7               110.31596
   29 Bend                     6     4     7               111.29255
   30 Bend                     7     9    17               134.21674
   31 Bend                     7    10    11               109.61609
   32 Bend                     7    10    12               108.53533
   33 Bend                     8     7     9               107.13083
   34 Bend                     8     7    10               108.54593
   35 Bend                     9    17    15               143.82189
   36 Bend                     9     7    10               107.50579
   37 Bend                    11    10    12               104.29402
   38 Bend                    13    15    16               108.98179
   39 Bend                    13    15    17               109.52775
   40 Bend                    13    15    18               109.52766
   41 Bend                    14    13    15               107.09115
   42 Bend                    16    15    17               109.35622
   43 Bend                    16    15    18               109.35536
   44 Bend                    17    15    18               110.07279
   45 Torsion                  1     4     7     8         -58.43640
   46 Torsion                  1     4     7     9        -176.23205
   47 Torsion                  1     4     7    10          64.03955
   48 Torsion                  2     1     4     5         -30.47690
   49 Torsion                  2     1     4     6        -146.41688
   50 Torsion                  2     1     4     7          91.46496
   51 Torsion                  3     1     4     5         153.59878
   52 Torsion                  3     1     4     6          37.65880
   53 Torsion                  3     1     4     7         -84.45935
   54 Torsion                  4     7     9    17         -87.56694
   55 Torsion                  4     7    10    11         -82.63376
   56 Torsion                  4     7    10    12         164.04136
   57 Torsion                  5     4     7     8          63.18832
   58 Torsion                  5     4     7     9         -54.60732
   59 Torsion                  5     4     7    10        -174.33573
   60 Torsion                  6     4     7     8        -178.71951
   61 Torsion                  6     4     7     9          63.48484
   62 Torsion                  6     4     7    10         -56.24356
   63 Torsion                  7     9    17    15         102.76358
   64 Torsion                  8     7     9    17         152.22772
   65 Torsion                  8     7    10    11          41.19035
   66 Torsion                  8     7    10    12         -72.13454
   67 Torsion                  9    17    15    13         -84.79534
   68 Torsion                  9    17    15    16         155.83862
   69 Torsion                  9    17    15    18          35.68190
   70 Torsion                  9     7    10    11         156.75902
   71 Torsion                  9     7    10    12          43.43414
   72 Torsion                 10     7     9    17          35.72678
   73 Torsion                 14    13    15    16        -179.99909
   74 Torsion                 14    13    15    17          60.40463
   75 Torsion                 14    13    15    18         -60.40391


            XYZ format geometry
            -------------------
    18
 geometry
 C                     0.60853237     2.19096542     0.87889759
 O                     0.39621787     3.35700727     0.55804245
 H                     1.38438186     1.96643049     1.63201000
 C                    -0.04099501     0.97049703     0.26949197
 Cl                   -1.68752786     1.37753097    -0.28869699
 H                    -0.15483107     0.21593605     1.05441971
 C                     0.79925269     0.43873033    -0.89559743
 H                     0.92918567     1.20577026    -1.66857129
 H                     0.27324865    -0.40322142    -1.36124960
 N                     2.12745996    -0.04173437    -0.48538561
 H                     2.77111843     0.74931683    -0.41220540
 H                     2.51423280    -0.61303489    -1.24079478
 O                    -0.13599958    -4.24255443     0.97153160
 H                    -0.38393037    -3.38745410     1.36241944
 C                    -0.40233058    -4.15845074    -0.41637599
 H                    -0.13384254    -5.10673690    -0.88784906
 H                     0.19396223    -3.35443842    -0.85466823
 H                    -1.46627492    -3.96452885    -0.57305184

 ==============================================================================
                                internuclear distances
 ------------------------------------------------------------------------------
       center one      |      center two      | atomic units |  angstroms
 ------------------------------------------------------------------------------
    2 O                |   1 C                |     2.32035  |     1.22788
    3 H                |   1 C                |     2.08687  |     1.10433
    4 C                |   1 C                |     2.85518  |     1.51090
    5 Cl               |   4 C                |     3.37427  |     1.78559
    6 H                |   4 C                |     2.06874  |     1.09473
    7 C                |   4 C                |     2.89457  |     1.53174
    8 H                |   7 C                |     2.07244  |     1.09669
    9 H                |   7 C                |     2.07216  |     1.09654
   10 N                |   7 C                |     2.77941  |     1.47080
   11 H                |  10 N                |     1.93216  |     1.02245
   12 H                |  10 N                |     1.93327  |     1.02304
   14 H                |  13 O                |     1.83747  |     0.97235
   15 C                |  13 O                |     2.67534  |     1.41573
   16 H                |  15 C                |     2.06458  |     1.09253
   17 H                |  15 C                |     2.06500  |     1.09275
   18 H                |  15 C                |     2.06502  |     1.09276
 ------------------------------------------------------------------------------
                         number of included internuclear distances:         16
 ==============================================================================



 ==============================================================================
                                 internuclear angles
 ------------------------------------------------------------------------------
        center 1       |       center 2       |       center 3       |  degrees
 ------------------------------------------------------------------------------
    2 O                |   1 C                |   3 H                |   119.52
    2 O                |   1 C                |   4 C                |   125.97
    3 H                |   1 C                |   4 C                |   114.38
    1 C                |   4 C                |   5 Cl               |   109.78
    1 C                |   4 C                |   6 H                |   108.20
    1 C                |   4 C                |   7 C                |   110.57
    5 Cl               |   4 C                |   6 H                |   106.58
    5 Cl               |   4 C                |   7 C                |   110.32
    6 H                |   4 C                |   7 C                |   111.29
    4 C                |   7 C                |   8 H                |   111.00
    4 C                |   7 C                |   9 H                |   109.05
    4 C                |   7 C                |  10 N                |   113.37
    8 H                |   7 C                |   9 H                |   107.13
    8 H                |   7 C                |  10 N                |   108.55
    9 H                |   7 C                |  10 N                |   107.51
    7 C                |  10 N                |  11 H                |   109.62
    7 C                |  10 N                |  12 H                |   108.54
   11 H                |  10 N                |  12 H                |   104.29
   14 H                |  13 O                |  15 C                |   107.09
   13 O                |  15 C                |  16 H                |   108.98
   13 O                |  15 C                |  17 H                |   109.53
   13 O                |  15 C                |  18 H                |   109.53
   16 H                |  15 C                |  17 H                |   109.36
   16 H                |  15 C                |  18 H                |   109.36
   17 H                |  15 C                |  18 H                |   110.07
 ------------------------------------------------------------------------------
                            number of included internuclear angles:         25
 ==============================================================================





 Summary of "ao basis" -> "" (cartesian)
 ------------------------------------------------------------------------------
       Tag                 Description            Shells   Functions and Types
 ---------------- ------------------------------  ------  ---------------------
 *                           6-31g                    on all atoms 



                                 NWChem DFT Module
                                 -----------------


                      Basis "ao basis" -> "ao basis" (cartesian)
                      -----
  C (Carbon)
  ----------
            Exponent  Coefficients 
       -------------- ---------------------------------------------------------
  1 S  3.04752490E+03  0.001835
  1 S  4.57369510E+02  0.014037
  1 S  1.03948690E+02  0.068843
  1 S  2.92101550E+01  0.232184
  1 S  9.28666300E+00  0.467941
  1 S  3.16392700E+00  0.362312

  2 S  7.86827240E+00 -0.119332
  2 S  1.88128850E+00 -0.160854
  2 S  5.44249300E-01  1.143456

  3 P  7.86827240E+00  0.068999
  3 P  1.88128850E+00  0.316424
  3 P  5.44249300E-01  0.744308

  4 S  1.68714400E-01  1.000000

  5 P  1.68714400E-01  1.000000

  O (Oxygen)
  ----------
            Exponent  Coefficients 
       -------------- ---------------------------------------------------------
  1 S  5.48467170E+03  0.001831
  1 S  8.25234950E+02  0.013950
  1 S  1.88046960E+02  0.068445
  1 S  5.29645000E+01  0.232714
  1 S  1.68975700E+01  0.470193
  1 S  5.79963530E+00  0.358521

  2 S  1.55396160E+01 -0.110778
  2 S  3.59993360E+00 -0.148026
  2 S  1.01376180E+00  1.130767

  3 P  1.55396160E+01  0.070874
  3 P  3.59993360E+00  0.339753
  3 P  1.01376180E+00  0.727159

  4 S  2.70005800E-01  1.000000

  5 P  2.70005800E-01  1.000000

  H (Hydrogen)
  ------------
            Exponent  Coefficients 
       -------------- ---------------------------------------------------------
  1 S  1.87311370E+01  0.033495
  1 S  2.82539370E+00  0.234727
  1 S  6.40121700E-01  0.813757

  2 S  1.61277800E-01  1.000000

  Cl (Chlorine)
  -------------
            Exponent  Coefficients 
       -------------- ---------------------------------------------------------
  1 S  2.51801000E+04  0.001833
  1 S  3.78035000E+03  0.014034
  1 S  8.60474000E+02  0.069097
  1 S  2.42145000E+02  0.237452
  1 S  7.73349000E+01  0.483034
  1 S  2.62470000E+01  0.339856

  2 S  4.91765000E+02 -0.002297
  2 S  1.16984000E+02 -0.030714
  2 S  3.74153000E+01 -0.112528
  2 S  1.37834000E+01  0.045016
  2 S  5.45215000E+00  0.589353
  2 S  2.22588000E+00  0.465206

  3 P  4.91765000E+02  0.003989
  3 P  1.16984000E+02  0.030318
  3 P  3.74153000E+01  0.129880
  3 P  1.37834000E+01  0.327951
  3 P  5.45215000E+00  0.453527
  3 P  2.22588000E+00  0.252154

  4 S  3.18649000E+00 -0.251830
  4 S  1.14427000E+00  0.061589
  4 S  4.20377000E-01  1.060180

  5 P  3.18649000E+00 -0.014299
  5 P  1.14427000E+00  0.323572
  5 P  4.20377000E-01  0.743507

  6 S  1.42657000E-01  1.000000

  7 P  1.42657000E-01  1.000000

  N (Nitrogen)
  ------------
            Exponent  Coefficients 
       -------------- ---------------------------------------------------------
  1 S  4.17351100E+03  0.001835
  1 S  6.27457900E+02  0.013995
  1 S  1.42902100E+02  0.068587
  1 S  4.02343300E+01  0.232241
  1 S  1.28202100E+01  0.469070
  1 S  4.39043700E+00  0.360455

  2 S  1.16263580E+01 -0.114961
  2 S  2.71628000E+00 -0.169118
  2 S  7.72218000E-01  1.145852

  3 P  1.16263580E+01  0.067580
  3 P  2.71628000E+00  0.323907
  3 P  7.72218000E-01  0.740895

  4 S  2.12031300E-01  1.000000

  5 P  2.12031300E-01  1.000000



 Summary of "ao basis" -> "ao basis" (cartesian)
 ------------------------------------------------------------------------------
       Tag                 Description            Shells   Functions and Types
 ---------------- ------------------------------  ------  ---------------------
 C                           6-31g                   5        9   3s2p
 O                           6-31g                   5        9   3s2p
 H                           6-31g                   2        2   2s
 Cl                          6-31g                   7       13   4s3p
 N                           6-31g                   5        9   3s2p




 Summary of "ao basis" -> "ao basis" (cartesian)
 ------------------------------------------------------------------------------
       Tag                 Description            Shells   Functions and Types
 ---------------- ------------------------------  ------  ---------------------
 C                           6-31g                   5        9   3s2p
 O                           6-31g                   5        9   3s2p
 H                           6-31g                   2        2   2s
 Cl                          6-31g                   7       13   4s3p
 N                           6-31g                   5        9   3s2p


  Caching 1-el integrals 

            General Information
            -------------------
          SCF calculation type: DFT
          Wavefunction type:  closed shell.
          No. of atoms     :    18
          No. of electrons :    74
           Alpha electrons :    37
            Beta electrons :    37
          Charge           :     0
          Spin multiplicity:     1
          Use of symmetry is: off; symmetry adaption is: off
          Maximum number of iterations:  30
          AO basis - number of functions:    96
                     number of shells:    62
          Convergence on energy requested: 1.00D-06
          Convergence on density requested: 1.00D-05
          Convergence on gradient requested: 5.00D-04

              XC Information
              --------------
                         B3LYP Method XC Potential
                     Hartree-Fock (Exact) Exchange  0.200          
                        Slater Exchange Functional  0.800 local    
                    Becke 1988 Exchange Functional  0.720 non-local
              Lee-Yang-Parr Correlation Functional  0.810          
                  VWN I RPA Correlation Functional  0.190 local    

             Grid Information
             ----------------
          Grid used for XC integration:  medium    
          Radial quadrature: Mura-Knowles        
          Angular quadrature: Lebedev. 
          Tag              B.-S. Rad. Rad. Pts. Rad. Cut. Ang. Pts.
          ---              ---------- --------- --------- ---------
          C                   0.70       49          14.0       434
          O                   0.60       49          14.0       434
          H                   0.35       45          14.0       434
          Cl                  1.00       88          14.0       590
          N                   0.65       49          13.0       434
          Grid pruning is: on 
          Number of quadrature shells:   881
          Spatial weights used:  Erf1

          Convergence Information
          -----------------------
          Convergence aids based upon iterative change in 
          total energy or number of iterations. 
          Levelshifting, if invoked, occurs when the 
          HOMO/LUMO gap drops below (HL_TOL): 1.00D-02
          DIIS, if invoked, will attempt to extrapolate 
          using up to (NFOCK): 10 stored Fock matrices.

                    Damping( 0%)  Levelshifting(0.5)       DIIS
                  --------------- ------------------- ---------------
          dE  on:    start            ASAP                start   
          dE off:    2 iters         30 iters            30 iters 


      Screening Tolerance Information
      -------------------------------
          Density screening/tol_rho: 1.00D-10
          AO Gaussian exp screening on grid/accAOfunc:  14
          CD Gaussian exp screening on grid/accCDfunc:  20
          XC Gaussian exp screening on grid/accXCfunc:  20
          Schwarz screening/accCoul: 1.00D-08


 Loading old vectors from job with title :



   Time after variat. SCF:      0.1
   Time prior to 1st pass:      0.1

 Integral file          = ./NW.aoints.0
 Record size in doubles =  65536        No. of integs per rec  =  43688
 Max. records in memory =    339        Max. records in file   = 199790
 No. of bits per label  =      8        No. of bits per value  =     64


 #quartets = 1.003D+06 #integrals = 5.251D+06 #direct =  0.0% #cached =100.0%


 Grid_pts file          = ./NW.gridpts.0
 Record size in doubles =  12289        No. of grid_pts per rec  =   3070
 Max. records in memory =    188        Max. recs in file   =   1065464


           Memory utilization after 1st SCF pass: 
           Heap Space remaining (MW):        0.00                   0
          Stack Space remaining (MW):       13.11            13106148

   convergence    iter        energy       DeltaE   RMS-Dens  Diis-err    time
 ---------------- ----- ----------------- --------- --------- ---------  ------
 d= 0,ls=0.0,diis     1   -815.4141336553 -1.24D+03  9.18D-02  1.92D+01     4.7
 d= 0,ls=0.0,diis     2   -822.7075806870 -7.29D+00  3.38D-02  7.49D+00     6.3
 d= 0,ls=0.0,diis     3   -823.2812482420 -5.74D-01  1.44D-02  3.36D+00     7.9
