 argument  1 = NW.nw
                                         
                                         


              Northwest Computational Chemistry Package (NWChem) 6.5
              ------------------------------------------------------


                    Environmental Molecular Sciences Laboratory
                       Pacific Northwest National Laboratory
                                Richland, WA 99352

                              Copyright (c) 1994-2014
                       Pacific Northwest National Laboratory
                            Battelle Memorial Institute

             NWChem is an open-source computational chemistry package
                        distributed under the terms of the
                      Educational Community License (ECL) 2.0
             A copy of the license is included with this distribution
                              in the LICENSE.TXT file

                                  ACKNOWLEDGMENT
                                  --------------

            This software and its documentation were developed at the
            EMSL at Pacific Northwest National Laboratory, a multiprogram
            national laboratory, operated for the U.S. Department of Energy
            by Battelle under Contract Number DE-AC05-76RL01830. Support
            for this work was provided by the Department of Energy Office
            of Biological and Environmental Research, Office of Basic
            Energy Sciences, and the Office of Advanced Scientific Computing.


           Job information
           ---------------

    hostname        = learnerPC
    program         = nwchem
    date            = Mon Mar 14 16:00:17 2016

    compiled        = Sun_Nov_23_23:34:13_2014
    source          = /build/buildd/nwchem-6.5+r26243
    nwchem branch   = 6.5
    nwchem revision = 26243
    ga revision     = 10506
    input           = NW.nw
    prefix          = NW.
    data base       = ./NW.db
    status          = restart
    nproc           =        1
    time left       =     -1s



           Memory information
           ------------------

    heap     =   13107198 doubles =    100.0 Mbytes
    stack    =   13107195 doubles =    100.0 Mbytes
    global   =   26214400 doubles =    200.0 Mbytes (distinct from heap & stack)
    total    =   52428793 doubles =    400.0 Mbytes
    verify   = yes
    hardfail = no 


           Directory information
           ---------------------

  0 permanent = .
  0 scratch   = .


           Previous task information
           -------------------------

    Theory    = dft                             
    Operation = energy                        
    Status    = ok                            
    Qmmm      = F
    Ignore    = F


           Geometries in the database
           --------------------------

       Name                              Natoms  Last Modified
       --------------------------------  ------  ------------------------
    1  geometry                              11  Mon Mar 14 16:00:06 2016  

  The geometry named "geometry" is the default for restart



           Basis sets in the database
           --------------------------

       Name                              Natoms  Last Modified
        --------------------------------  ------  ------------------------
    1  ao basis                               0  Mon Mar 14 16:00:06 2016  

  The basis set named "ao basis" is the default AO basis for restart




                                NWChem Input Module
                                -------------------



 Scaling coordinates for geometry "geometry" by  1.889725989
 (inverse scale =  0.529177249)

 C1  symmetry detected

          ------
          auto-z
          ------
  autoz: The atoms group into disjoint clusters
 cluster   1:    1    2    3    4    5    6    7
 cluster   2:    8    9   10   11
 Connecting clusters   1   2 via atoms    6    9 r = 3.00
  autoz: regenerating connections with new bonds


                             Geometry "geometry" -> ""
                             -------------------------

 Output coordinates in angstroms (scale by  1.889725989 to convert to a.u.)

  No.       Tag          Charge          X              Y              Z
 ---- ---------------- ---------- -------------- -------------- --------------
    1 C                    6.0000     0.24968754    -1.55969462     0.24955560
    2 H                    1.0000     0.90972142    -0.95806809     0.86313598
    3 C                    6.0000     0.44466731    -2.85318718    -0.00883610
    4 H                    1.0000     1.30678356    -3.36789943     0.40396012
    5 H                    1.0000    -0.23326101    -3.43029267    -0.62685331
    6 O                    8.0000    -0.80109546    -0.82805675    -0.22241265
    7 H                    1.0000    -1.36457688    -1.40595878    -0.76546780
    8 C                    6.0000    -0.31877303     2.70966589     0.35906404
    9 H                    1.0000    -1.22974807     2.09447236     0.28562983
   10 H                    1.0000    -0.32442862     3.47355073     1.15291793
   11 O                    8.0000     0.63634780     2.55474316    -0.39159035

      Atomic Mass 
      ----------- 

      C                 12.000000
      H                  1.007825
      O                 15.994910


 Effective nuclear repulsion energy (a.u.)     147.7482018855

            Nuclear Dipole moment (a.u.) 
            ----------------------------
        X                 Y               Z
 ---------------- ---------------- ----------------
     0.0000000000    -0.0000000000     0.0000000000



                                Z-matrix (autoz)
                                -------- 

 Units are Angstrom for bonds and degrees for angles

      Type          Name      I     J     K     L     M      Value
      ----------- --------  ----- ----- ----- ----- ----- ----------
    1 Stretch                  1     2                       1.08355
    2 Stretch                  1     3                       1.33338
    3 Stretch                  1     6                       1.36462
    4 Stretch                  3     4                       1.08562
    5 Stretch                  3     5                       1.08378
    6 Stretch                  6     9                       2.99717
    7 Stretch                  6     7                       0.97283
    8 Stretch                  8     9                       1.10169
    9 Stretch                  8    10                       1.10171
   10 Stretch                  8    11                       1.22464
   11 Bend                     1     3     4               120.15711
   12 Bend                     1     3     5               122.38448
   13 Bend                     1     6     9               125.05037
   14 Bend                     1     6     7               108.69817
   15 Bend                     2     1     3               124.00653
   16 Bend                     2     1     6               111.54366
   17 Bend                     3     1     6               124.44980
   18 Bend                     4     3     5               117.45841
   19 Bend                     6     9     8               115.94693
   20 Bend                     7     6     9               126.23042
   21 Bend                     9     8    10               115.52881
   22 Bend                     9     8    11               122.23591
   23 Bend                    10     8    11               122.23528
   24 Torsion                  1     6     9     8          33.80729
   25 Torsion                  2     1     3     4           0.00000
   26 Torsion                  2     1     3     5        -179.99981
   27 Torsion                  2     1     6     9           1.58268
   28 Torsion                  2     1     6     7         179.99891
   29 Torsion                  3     1     6     9        -178.41736
   30 Torsion                  3     1     6     7          -0.00112
   31 Torsion                  4     3     1     6        -180.00000
   32 Torsion                  5     3     1     6           0.00023
   33 Torsion                  6     9     8    10        -138.78857
   34 Torsion                  6     9     8    11          41.21130
   35 Torsion                  7     6     9     8        -144.33285


            XYZ format geometry
            -------------------
    11
 geometry
 C                     0.24968754    -1.55969462     0.24955560
 H                     0.90972142    -0.95806809     0.86313598
 C                     0.44466731    -2.85318718    -0.00883610
 H                     1.30678356    -3.36789943     0.40396012
 H                    -0.23326101    -3.43029267    -0.62685331
 O                    -0.80109546    -0.82805675    -0.22241265
 H                    -1.36457688    -1.40595878    -0.76546780
 C                    -0.31877303     2.70966589     0.35906404
 H                    -1.22974807     2.09447236     0.28562983
 H                    -0.32442862     3.47355073     1.15291793
 O                     0.63634780     2.55474316    -0.39159035

 ==============================================================================
                                internuclear distances
 ------------------------------------------------------------------------------
       center one      |      center two      | atomic units |  angstroms
 ------------------------------------------------------------------------------
    2 H                |   1 C                |     2.04761  |     1.08355
    3 C                |   1 C                |     2.51973  |     1.33338
    4 H                |   3 C                |     2.05153  |     1.08562
    5 H                |   3 C                |     2.04805  |     1.08378
    6 O                |   1 C                |     2.57876  |     1.36462
    7 H                |   6 O                |     1.83838  |     0.97283
    9 H                |   8 C                |     2.08190  |     1.10169
   10 H                |   8 C                |     2.08192  |     1.10171
   11 O                |   8 C                |     2.31423  |     1.22464
 ------------------------------------------------------------------------------
                         number of included internuclear distances:          9
 ==============================================================================



 ==============================================================================
                                 internuclear angles
 ------------------------------------------------------------------------------
        center 1       |       center 2       |       center 3       |  degrees
 ------------------------------------------------------------------------------
    2 H                |   1 C                |   3 C                |   124.01
    2 H                |   1 C                |   6 O                |   111.54
    3 C                |   1 C                |   6 O                |   124.45
    1 C                |   3 C                |   4 H                |   120.16
    1 C                |   3 C                |   5 H                |   122.38
    4 H                |   3 C                |   5 H                |   117.46
    1 C                |   6 O                |   7 H                |   108.70
    9 H                |   8 C                |  10 H                |   115.53
    9 H                |   8 C                |  11 O                |   122.24
   10 H                |   8 C                |  11 O                |   122.24
 ------------------------------------------------------------------------------
                            number of included internuclear angles:         10
 ==============================================================================





 Summary of "ao basis" -> "" (cartesian)
 ------------------------------------------------------------------------------
       Tag                 Description            Shells   Functions and Types
 ---------------- ------------------------------  ------  ---------------------
 *                           6-31g                    on all atoms 



                                 NWChem DFT Module
                                 -----------------


                      Basis "ao basis" -> "ao basis" (cartesian)
                      -----
  C (Carbon)
  ----------
            Exponent  Coefficients 
       -------------- ---------------------------------------------------------
  1 S  3.04752490E+03  0.001835
  1 S  4.57369510E+02  0.014037
  1 S  1.03948690E+02  0.068843
  1 S  2.92101550E+01  0.232184
  1 S  9.28666300E+00  0.467941
  1 S  3.16392700E+00  0.362312

  2 S  7.86827240E+00 -0.119332
  2 S  1.88128850E+00 -0.160854
  2 S  5.44249300E-01  1.143456

  3 P  7.86827240E+00  0.068999
  3 P  1.88128850E+00  0.316424
  3 P  5.44249300E-01  0.744308

  4 S  1.68714400E-01  1.000000

  5 P  1.68714400E-01  1.000000

  H (Hydrogen)
  ------------
            Exponent  Coefficients 
       -------------- ---------------------------------------------------------
  1 S  1.87311370E+01  0.033495
  1 S  2.82539370E+00  0.234727
  1 S  6.40121700E-01  0.813757

  2 S  1.61277800E-01  1.000000

  O (Oxygen)
  ----------
            Exponent  Coefficients 
       -------------- ---------------------------------------------------------
  1 S  5.48467170E+03  0.001831
  1 S  8.25234950E+02  0.013950
  1 S  1.88046960E+02  0.068445
  1 S  5.29645000E+01  0.232714
  1 S  1.68975700E+01  0.470193
  1 S  5.79963530E+00  0.358521

  2 S  1.55396160E+01 -0.110778
  2 S  3.59993360E+00 -0.148026
  2 S  1.01376180E+00  1.130767

  3 P  1.55396160E+01  0.070874
  3 P  3.59993360E+00  0.339753
  3 P  1.01376180E+00  0.727159

  4 S  2.70005800E-01  1.000000

  5 P  2.70005800E-01  1.000000



 Summary of "ao basis" -> "ao basis" (cartesian)
 ------------------------------------------------------------------------------
       Tag                 Description            Shells   Functions and Types
 ---------------- ------------------------------  ------  ---------------------
 C                           6-31g                   5        9   3s2p
 H                           6-31g                   2        2   2s
 O                           6-31g                   5        9   3s2p




 Summary of "ao basis" -> "ao basis" (cartesian)
 ------------------------------------------------------------------------------
       Tag                 Description            Shells   Functions and Types
 ---------------- ------------------------------  ------  ---------------------
 C                           6-31g                   5        9   3s2p
 H                           6-31g                   2        2   2s
 O                           6-31g                   5        9   3s2p


  Caching 1-el integrals 

            General Information
            -------------------
          SCF calculation type: DFT
          Wavefunction type:  closed shell.
          No. of atoms     :    11
          No. of electrons :    40
           Alpha electrons :    20
            Beta electrons :    20
          Charge           :     0
          Spin multiplicity:     1
          Use of symmetry is: off; symmetry adaption is: off
          Maximum number of iterations:  30
          AO basis - number of functions:    57
                     number of shells:    37
          Convergence on energy requested: 1.00D-06
          Convergence on density requested: 1.00D-05
          Convergence on gradient requested: 5.00D-04

              XC Information
              --------------
                         B3LYP Method XC Potential
                     Hartree-Fock (Exact) Exchange  0.200          
                        Slater Exchange Functional  0.800 local    
                    Becke 1988 Exchange Functional  0.720 non-local
              Lee-Yang-Parr Correlation Functional  0.810          
                  VWN I RPA Correlation Functional  0.190 local    

             Grid Information
             ----------------
          Grid used for XC integration:  medium    
          Radial quadrature: Mura-Knowles        
          Angular quadrature: Lebedev. 
          Tag              B.-S. Rad. Rad. Pts. Rad. Cut. Ang. Pts.
          ---              ---------- --------- --------- ---------
          C                   0.70       49          14.0       434
          H                   0.35       45          14.0       434
          O                   0.60       49          12.0       434
          Grid pruning is: on 
          Number of quadrature shells:   515
          Spatial weights used:  Erf1

          Convergence Information
          -----------------------
          Convergence aids based upon iterative change in 
          total energy or number of iterations. 
          Levelshifting, if invoked, occurs when the 
          HOMO/LUMO gap drops below (HL_TOL): 1.00D-02
          DIIS, if invoked, will attempt to extrapolate 
          using up to (NFOCK): 10 stored Fock matrices.

                    Damping( 0%)  Levelshifting(0.5)       DIIS
                  --------------- ------------------- ---------------
          dE  on:    start            ASAP                start   
          dE off:    2 iters         30 iters            30 iters 


      Screening Tolerance Information
      -------------------------------
          Density screening/tol_rho: 1.00D-10
          AO Gaussian exp screening on grid/accAOfunc:  14
          CD Gaussian exp screening on grid/accCDfunc:  20
          XC Gaussian exp screening on grid/accXCfunc:  20
          Schwarz screening/accCoul: 1.00D-08


 Loading old vectors from job with title :



   Time after variat. SCF:      0.0
   Time prior to 1st pass:      0.0

 Integral file          = ./NW.aoints.0
 Record size in doubles =  65536        No. of integs per rec  =  43688
 Max. records in memory =     45        Max. records in file   = 199678
 No. of bits per label  =      8        No. of bits per value  =     64


 #quartets = 1.529D+05 #integrals = 8.306D+05 #direct =  0.0% #cached =100.0%


 Grid_pts file          = ./NW.gridpts.0
 Record size in doubles =  12289        No. of grid_pts per rec  =   3070
 Max. records in memory =     82        Max. recs in file   =   1064866


           Memory utilization after 1st SCF pass: 
           Heap Space remaining (MW):        9.14             9141118
          Stack Space remaining (MW):       13.11            13106588

   convergence    iter        energy       DeltaE   RMS-Dens  Diis-err    time
 ---------------- ----- ----------------- --------- --------- ---------  ------
 d= 0,ls=0.0,diis     1   -263.5297441146 -4.11D+02  1.09D-01  1.21D+01     1.1
 d= 0,ls=0.0,diis     2   -267.1823827854 -3.65D+00  5.34D-02  9.45D+00     1.6
 d= 0,ls=0.0,diis     3   -267.8044976063 -6.22D-01  2.12D-02  4.01D+00     2.1
 d= 0,ls=0.0,diis     4   -268.1758929730 -3.71D-01  8.20D-03  4.11D-01     2.6
 d= 0,ls=0.0,diis     5   -268.2120993561 -3.62D-02  3.80D-03  1.10D-01     3.1
  Resetting Diis
 d= 0,ls=0.0,diis     6   -268.2226801262 -1.06D-02  1.54D-03  1.42D-02     3.6
 d= 0,ls=0.0,diis     7   -268.2240918454 -1.41D-03  1.10D-03  1.18D-03     4.1
 d= 0,ls=0.0,diis     8   -268.2236696896  4.22D-04  7.25D-04  4.59D-03     4.6
 d= 0,ls=0.0,diis     9   -268.2242518343 -5.82D-04  8.32D-05  5.17D-05     5.1
 d= 0,ls=0.0,diis    10   -268.2242570175 -5.18D-06  2.50D-05  3.29D-06     5.6
 d= 0,ls=0.0,diis    11   -268.2242574302 -4.13D-07  1.80D-05  6.08D-07     6.1
 d= 0,ls=0.0,diis    12   -268.2242575337 -1.03D-07  6.35D-06  2.07D-07     6.6


         Total DFT energy =     -268.224257533658
      One electron energy =     -657.007044523337
           Coulomb energy =      276.646393997997
    Exchange-Corr. energy =      -35.611808893816
 Nuclear repulsion energy =      147.748201885497

 Numeric. integr. density =       40.000006808978

     Total iterative time =      6.5s



                       DFT Final Molecular Orbital Analysis
                       ------------------------------------

 Vector    5  Occ=2.000000D+00  E=-1.017034D+01
              MO Center=  4.4D-01, -2.9D+00, -8.8D-03, r^2= 2.8D-02
   Bfn.  Coefficient  Atom+Function         Bfn.  Coefficient  Atom+Function  
  ----- ------------  ---------------      ----- ------------  ---------------
    12      0.995085   3 C  s         

 Vector    6  Occ=2.000000D+00  E=-1.072343D+00
              MO Center= -6.9D-01, -1.1D+00, -2.2D-01, r^2= 5.9D-01
   Bfn.  Coefficient  Atom+Function         Bfn.  Coefficient  Atom+Function  
  ----- ------------  ---------------      ----- ------------  ---------------
    30      0.471987   6 O  s                26      0.441934   6 O  s         
    25     -0.202803   6 O  s                 2      0.157960   1 C  s         

 Vector    7  Occ=2.000000D+00  E=-1.066082D+00
              MO Center=  3.4D-01,  2.6D+00, -1.6D-01, r^2= 5.0D-01
   Bfn.  Coefficient  Atom+Function         Bfn.  Coefficient  Atom+Function  
  ----- ------------  ---------------      ----- ------------  ---------------
    50      0.434412  11 O  s                54      0.398421  11 O  s         
    37      0.230906   8 C  s                49     -0.194554  11 O  s         
    38      0.151252   8 C  px        

 Vector    8  Occ=2.000000D+00  E=-7.546162D-01
              MO Center=  2.7D-01, -2.2D+00,  8.1D-02, r^2= 1.4D+00
   Bfn.  Coefficient  Atom+Function         Bfn.  Coefficient  Atom+Function  
  ----- ------------  ---------------      ----- ------------  ---------------
    13      0.313669   3 C  s                 2      0.290034   1 C  s         
    17      0.218575   3 C  s                 6      0.198966   1 C  s         
    12     -0.161177   3 C  s                30     -0.155393   6 O  s         

 Vector    9  Occ=2.000000D+00  E=-6.329263D-01
              MO Center= -4.5D-01,  2.7D+00,  4.8D-01, r^2= 1.2D+00
   Bfn.  Coefficient  Atom+Function         Bfn.  Coefficient  Atom+Function  
  ----- ------------  ---------------      ----- ------------  ---------------
    37      0.350124   8 C  s                41      0.331418   8 C  s         
    54     -0.256467  11 O  s                50     -0.200224  11 O  s         
    47      0.188753  10 H  s                45      0.181885   9 H  s         
    38     -0.166192   8 C  px               36     -0.163389   8 C  s         

 Vector   10  Occ=2.000000D+00  E=-6.254188D-01
              MO Center= -2.1D-01, -1.6D+00, -5.4D-02, r^2= 2.1D+00
   Bfn.  Coefficient  Atom+Function         Bfn.  Coefficient  Atom+Function  
  ----- ------------  ---------------      ----- ------------  ---------------
    27      0.296895   6 O  px                4      0.233296   1 C  py        
    29      0.211421   6 O  pz                2      0.198694   1 C  s         
    34     -0.194592   7 H  s                13     -0.192707   3 C  s         
    17     -0.176253   3 C  s                 6      0.165458   1 C  s         

 Vector   11  Occ=2.000000D+00  E=-5.006154D-01
              MO Center=  4.2D-02, -2.0D+00, -9.8D-03, r^2= 2.2D+00
   Bfn.  Coefficient  Atom+Function         Bfn.  Coefficient  Atom+Function  
  ----- ------------  ---------------      ----- ------------  ---------------
    27     -0.267202   6 O  px                3      0.265672   1 C  px        
    15      0.214192   3 C  py               23     -0.183705   5 H  s         
    29     -0.172880   6 O  pz               10      0.161642   2 H  s         

 Vector   12  Occ=2.000000D+00  E=-4.931006D-01
              MO Center= -2.5D-01,  2.5D+00,  3.0D-01, r^2= 2.3D+00
   Bfn.  Coefficient  Atom+Function         Bfn.  Coefficient  Atom+Function  
  ----- ------------  ---------------      ----- ------------  ---------------
    39      0.328769   8 C  py               38      0.216039   8 C  px        
    40      0.207260   8 C  pz               52      0.199931  11 O  py        
    45     -0.192818   9 H  s                47      0.191283  10 H  s         

 Vector   13  Occ=2.000000D+00  E=-4.806247D-01
              MO Center=  3.0D-01, -2.0D+00,  1.2D-01, r^2= 3.4D+00
   Bfn.  Coefficient  Atom+Function         Bfn.  Coefficient  Atom+Function  
  ----- ------------  ---------------      ----- ------------  ---------------
    15      0.262621   3 C  py               28     -0.234480   6 O  py        
     4     -0.205403   1 C  py               21     -0.204116   4 H  s         
    14     -0.196868   3 C  px               30     -0.162442   6 O  s         
     5     -0.154789   1 C  pz        

 Vector   14  Occ=2.000000D+00  E=-4.338504D-01
              MO Center=  5.3D-01,  2.6D+00, -3.1D-01, r^2= 1.1D+00
   Bfn.  Coefficient  Atom+Function         Bfn.  Coefficient  Atom+Function  
  ----- ------------  ---------------      ----- ------------  ---------------
    51      0.401026  11 O  px               54      0.375580  11 O  s         
    53     -0.318139  11 O  pz               38     -0.295659   8 C  px        
    40      0.226627   8 C  pz               55      0.196823  11 O  px        
    50      0.189602  11 O  s                57     -0.155262  11 O  pz        

 Vector   15  Occ=2.000000D+00  E=-3.919075D-01
              MO Center=  3.4D-01, -4.8D-01, -1.2D-02, r^2= 8.0D+00
   Bfn.  Coefficient  Atom+Function         Bfn.  Coefficient  Atom+Function  
  ----- ------------  ---------------      ----- ------------  ---------------
    14      0.215579   3 C  px               52      0.207055  11 O  py        
    53     -0.204402  11 O  pz               23     -0.185590   5 H  s         
    16      0.176256   3 C  pz               24     -0.177114   5 H  s         
    10     -0.152992   2 H  s                21      0.151724   4 H  s         
    39      0.151361   8 C  py        

 Vector   16  Occ=2.000000D+00  E=-3.899871D-01
              MO Center=  2.2D-01,  2.7D-01, -3.3D-02, r^2= 7.3D+00
   Bfn.  Coefficient  Atom+Function         Bfn.  Coefficient  Atom+Function  
  ----- ------------  ---------------      ----- ------------  ---------------
    52      0.239537  11 O  py               53     -0.228181  11 O  pz        
    14     -0.187642   3 C  px                5      0.176592   1 C  pz        
    39      0.175308   8 C  py               27     -0.172724   6 O  px        
    40     -0.169465   8 C  pz        

 Vector   17  Occ=2.000000D+00  E=-3.884223D-01
              MO Center= -3.3D-01, -8.2D-01, -8.0D-02, r^2= 2.7D+00
   Bfn.  Coefficient  Atom+Function         Bfn.  Coefficient  Atom+Function  
  ----- ------------  ---------------      ----- ------------  ---------------
    29      0.403500   6 O  pz               33      0.274996   6 O  pz        
    27     -0.236588   6 O  px                5      0.203674   1 C  pz        
     3     -0.175637   1 C  px               31     -0.166192   6 O  px        

 Vector   18  Occ=2.000000D+00  E=-3.595806D-01
              MO Center= -4.3D-01, -1.1D+00, -8.1D-02, r^2= 2.1D+00
   Bfn.  Coefficient  Atom+Function         Bfn.  Coefficient  Atom+Function  
  ----- ------------  ---------------      ----- ------------  ---------------
    28      0.491065   6 O  py               32      0.328868   6 O  py        
     4     -0.238288   1 C  py               30      0.227727   6 O  s         
    15      0.218297   3 C  py               17      0.183601   3 C  s         
    26      0.152548   6 O  s         

 Vector   19  Occ=2.000000D+00  E=-2.585603D-01
              MO Center=  2.6D-01,  2.6D+00, -9.7D-02, r^2= 1.5D+00
   Bfn.  Coefficient  Atom+Function         Bfn.  Coefficient  Atom+Function  
  ----- ------------  ---------------      ----- ------------  ---------------
    52      0.439991  11 O  py               56      0.314152  11 O  py        
    48     -0.299951  10 H  s                51      0.289801  11 O  px        
    46      0.283594   9 H  s                53      0.278053  11 O  pz        
    55      0.206770  11 O  px               57      0.199703  11 O  pz        
    45      0.189756   9 H  s                47     -0.189900  10 H  s         

 Vector   20  Occ=2.000000D+00  E=-2.328497D-01
              MO Center=  6.5D-02, -2.0D+00, -1.1D-02, r^2= 2.0D+00
   Bfn.  Coefficient  Atom+Function         Bfn.  Coefficient  Atom+Function  
  ----- ------------  ---------------      ----- ------------  ---------------
    16      0.333333   3 C  pz               29     -0.304643   6 O  pz        
    20      0.268790   3 C  pz               33     -0.253908   6 O  pz        
     5      0.236326   1 C  pz               14     -0.219121   3 C  px        
    27      0.199941   6 O  px               18     -0.176953   3 C  px        
    31      0.165957   6 O  px                3     -0.156058   1 C  px        

 Vector   21  Occ=0.000000D+00  E=-4.332978D-02
              MO Center= -6.2D-03,  2.7D+00,  1.1D-01, r^2= 1.4D+00
   Bfn.  Coefficient  Atom+Function         Bfn.  Coefficient  Atom+Function  
  ----- ------------  ---------------      ----- ------------  ---------------
    43      0.372953   8 C  py               44     -0.363689   8 C  pz        
    39      0.332209   8 C  py               40     -0.320050   8 C  pz        
    56     -0.309058  11 O  py               52     -0.299996  11 O  py        
    57      0.297092  11 O  pz               53      0.288141  11 O  pz        
    42     -0.220792   8 C  px               38     -0.196062   8 C  px        

 Vector   22  Occ=0.000000D+00  E= 3.473268D-02
              MO Center=  2.8D-01, -2.1D+00,  1.2D-01, r^2= 2.0D+00
   Bfn.  Coefficient  Atom+Function         Bfn.  Coefficient  Atom+Function  
  ----- ------------  ---------------      ----- ------------  ---------------
     9      0.522728   1 C  pz               20     -0.501297   3 C  pz        
     5      0.400533   1 C  pz                7     -0.349469   1 C  px        
    18      0.330839   3 C  px               16     -0.312246   3 C  pz        
     3     -0.265475   1 C  px               33     -0.209653   6 O  pz        
    14      0.205077   3 C  px               29     -0.177896   6 O  pz        

 Vector   23  Occ=0.000000D+00  E= 6.236403D-02
              MO Center= -1.2D+00, -1.5D+00, -7.0D-01, r^2= 3.0D+00
   Bfn.  Coefficient  Atom+Function         Bfn.  Coefficient  Atom+Function  
  ----- ------------  ---------------      ----- ------------  ---------------
    35      1.300364   7 H  s                30     -0.912869   6 O  s         
    19      0.381281   3 C  py               22      0.357812   4 H  s         
    24      0.345239   5 H  s                32      0.324699   6 O  py        
     8      0.295471   1 C  py               46      0.273859   9 H  s         
    41     -0.238982   8 C  s                33      0.234712   6 O  pz        

 Vector   24  Occ=0.000000D+00  E= 1.130905D-01
              MO Center= -6.5D-01,  2.1D+00,  7.0D-01, r^2= 6.6D+00
   Bfn.  Coefficient  Atom+Function         Bfn.  Coefficient  Atom+Function  
  ----- ------------  ---------------      ----- ------------  ---------------
    41      1.694872   8 C  s                48     -1.336474  10 H  s         
    46     -1.151059   9 H  s                11     -0.489223   2 H  s         
    24      0.470603   5 H  s                42     -0.403972   8 C  px        
    44      0.380896   8 C  pz                7      0.251170   1 C  px        
    35      0.248904   7 H  s                17     -0.214205   3 C  s         

 Vector   25  Occ=0.000000D+00  E= 1.258190D-01
              MO Center=  7.3D-01, -1.2D+00,  6.5D-01, r^2= 6.6D+00
   Bfn.  Coefficient  Atom+Function         Bfn.  Coefficient  Atom+Function  
  ----- ------------  ---------------      ----- ------------  ---------------
    11      1.446360   2 H  s                22      0.987326   4 H  s         
     6     -0.962434   1 C  s                41      0.806798   8 C  s         
    24     -0.553521   5 H  s                48     -0.535713  10 H  s         
     7     -0.522677   1 C  px               18     -0.471405   3 C  px        
     9     -0.406738   1 C  pz               46     -0.300939   9 H  s         

 Vector   26  Occ=0.000000D+00  E= 1.402583D-01
              MO Center=  9.6D-02, -2.8D+00, -2.4D-01, r^2= 5.0D+00
   Bfn.  Coefficient  Atom+Function         Bfn.  Coefficient  Atom+Function  
  ----- ------------  ---------------      ----- ------------  ---------------
    17      1.944702   3 C  s                24     -1.628006   5 H  s         
    22     -0.833635   4 H  s                30     -0.584186   6 O  s         
     8      0.540019   1 C  py               19     -0.511796   3 C  py        
     6      0.456422   1 C  s                11     -0.427357   2 H  s         
    35      0.339108   7 H  s                41      0.328715   8 C  s         

 Vector   27  Occ=0.000000D+00  E= 1.805838D-01
              MO Center=  8.7D-01, -1.9D+00,  5.1D-01, r^2= 5.2D+00
   Bfn.  Coefficient  Atom+Function         Bfn.  Coefficient  Atom+Function  
  ----- ------------  ---------------      ----- ------------  ---------------
     6      1.798125   1 C  s                22      1.492642   4 H  s         
    11     -1.333251   2 H  s                17     -1.101849   3 C  s         
    18     -0.794483   3 C  px               20     -0.576642   3 C  pz        
    24     -0.477493   5 H  s                31     -0.344263   6 O  px        
    35     -0.345001   7 H  s                 7      0.334489   1 C  px        

 Vector   28  Occ=0.000000D+00  E= 1.889410D-01
              MO Center= -8.3D-01,  2.4D+00,  6.2D-01, r^2= 4.1D+00
   Bfn.  Coefficient  Atom+Function         Bfn.  Coefficient  Atom+Function  
  ----- ------------  ---------------      ----- ------------  ---------------
    46      1.641413   9 H  s                48     -1.435768  10 H  s         
    43      0.963334   8 C  py               42      0.663812   8 C  px        
    44      0.584647   8 C  pz               39      0.388247   8 C  py        
    24      0.322853   5 H  s                22     -0.306750   4 H  s         
    18      0.273331   3 C  px               38      0.273922   8 C  px        

 Vector   29  Occ=0.000000D+00  E= 2.253248D-01
              MO Center= -1.8D-01,  2.2D+00,  2.3D-01, r^2= 4.5D+00
   Bfn.  Coefficient  Atom+Function         Bfn.  Coefficient  Atom+Function  
  ----- ------------  ---------------      ----- ------------  ---------------
    54      1.767939  11 O  s                42     -1.401671   8 C  px        
    41     -1.324190   8 C  s                44      1.105133   8 C  pz        
     6     -0.672698   1 C  s                55     -0.617938  11 O  px        
    57      0.484808  11 O  pz               24     -0.354612   5 H  s         
    11      0.288347   2 H  s                35      0.265360   7 H  s         

 Vector   30  Occ=0.000000D+00  E= 2.852617D-01
              MO Center=  4.7D-02, -1.8D+00, -9.2D-03, r^2= 5.3D+00
   Bfn.  Coefficient  Atom+Function         Bfn.  Coefficient  Atom+Function  
  ----- ------------  ---------------      ----- ------------  ---------------
     7     -1.502274   1 C  px                6      1.395702   1 C  s         
    18      1.296923   3 C  px               24      1.241966   5 H  s         
    22     -1.175004   4 H  s                30     -1.080169   6 O  s         
     9     -0.969919   1 C  pz               11      0.841896   2 H  s         
    20      0.690270   3 C  pz               31     -0.656268   6 O  px        

 Vector   31  Occ=0.000000D+00  E= 3.592426D-01
              MO Center=  3.7D-01, -2.5D+00,  4.3D-02, r^2= 3.9D+00
   Bfn.  Coefficient  Atom+Function         Bfn.  Coefficient  Atom+Function  
  ----- ------------  ---------------      ----- ------------  ---------------
    17     -3.042772   3 C  s                 6      2.960283   1 C  s         
    19     -2.973990   3 C  py                8     -2.788364   1 C  py        
    11      0.714175   2 H  s                24     -0.705807   5 H  s         
    20     -0.630310   3 C  pz               35      0.593411   7 H  s         
     7      0.505554   1 C  px                9     -0.504621   1 C  pz        

 Vector   32  Occ=0.000000D+00  E= 5.022204D-01
              MO Center= -9.7D-03,  3.9D-01,  3.1D-01, r^2= 7.6D+00
   Bfn.  Coefficient  Atom+Function         Bfn.  Coefficient  Atom+Function  
  ----- ------------  ---------------      ----- ------------  ---------------
     8      0.838774   1 C  py               43     -0.670436   8 C  py        
    39      0.532841   8 C  py               19     -0.496796   3 C  py        
    44      0.463858   8 C  pz               40     -0.420401   8 C  pz        
     4     -0.372356   1 C  py               30     -0.363727   6 O  s         
     7     -0.357560   1 C  px               15      0.350439   3 C  py        


 center of mass
 --------------
 x =   0.02371265 y =   0.09079663 z =  -0.03317938

 moments of inertia (a.u.)
 ------------------
        1363.457476712079          -0.000000000000          -0.000000000000
          -0.000000000000         128.655939680191           0.000000000000
          -0.000000000000           0.000000000000        1428.975639176759

     Multipole analysis of the density
     ---------------------------------

     L   x y z        total         alpha         beta         nuclear
     -   - - -        -----         -----         ----         -------
     0   0 0 0     -0.000000    -20.000000    -20.000000     40.000000

     1   1 0 0     -0.824980     -0.412490     -0.412490      0.000000
     1   0 1 0     -0.409713     -0.204857     -0.204857     -0.000000
     1   0 0 1      0.388924      0.194462      0.194462      0.000000

     2   2 0 0    -21.453703    -40.389836    -40.389836     59.325969
     2   1 1 0     -2.378766      4.302329      4.302329    -10.983423
     2   1 0 1      2.618314     -0.251379     -0.251379      3.121073
     2   0 2 0    -19.766023   -380.647772   -380.647772    741.529521
     2   0 1 1      4.165382     -2.855437     -2.855437      9.876256
     2   0 0 2    -22.222860    -21.946145    -21.946145     21.669429


 Parallel integral file used      20 records with       0 large values


 Task  times  cpu:        6.6s     wall:        6.6s
 Summary of allocated global arrays
-----------------------------------
  No active global arrays



                         GA Statistics for process    0
                         ------------------------------

       create   destroy   get      put      acc     scatter   gather  read&inc
calls:  177      177     1.19e+05 2310     7.78e+04    0        0     1918     
number of processes/call 1.00e+00 1.00e+00 1.00e+00 0.00e+00 0.00e+00
bytes total:             3.72e+07 4.77e+06 2.11e+07 0.00e+00 0.00e+00 1.53e+04
bytes remote:            0.00e+00 0.00e+00 0.00e+00 0.00e+00 0.00e+00 0.00e+00
Max memory consumed for GA by this process: 1013688 bytes
MA_summarize_allocated_blocks: starting scan ...
MA_summarize_allocated_blocks: scan completed: 0 heap blocks, 0 stack blocks
MA usage statistics:

	allocation statistics:
					      heap	     stack
					      ----	     -----
	current number of blocks	         0	         0
	maximum number of blocks	        23	        50
	current total bytes		         0	         0
	maximum total bytes		  31728544	  17939768
	maximum total K-bytes		     31729	     17940
	maximum total M-bytes		        32	        18


                                NWChem Input Module
                                -------------------





                                     CITATION
                                     --------
                Please cite the following reference when publishing
                           results obtained with NWChem:

                 M. Valiev, E.J. Bylaska, N. Govind, K. Kowalski,
              T.P. Straatsma, H.J.J. van Dam, D. Wang, J. Nieplocha,
                        E. Apra, T.L. Windus, W.A. de Jong
                 "NWChem: a comprehensive and scalable open-source
                  solution for large scale molecular simulations"
                      Comput. Phys. Commun. 181, 1477 (2010)
                           doi:10.1016/j.cpc.2010.04.018

                                      AUTHORS
                                      -------
          E. Apra, E. J. Bylaska, W. A. de Jong, N. Govind, K. Kowalski,
       T. P. Straatsma, M. Valiev, H. J. J. van Dam, D. Wang, T. L. Windus,
        J. Hammond, J. Autschbach, K. Bhaskaran-Nair, J. Brabec, K. Lopata,
        S. Krishnamoorthy, W. Ma, M. Klemm, O. Villa, Y. Chen, V. Anisimov,
    F. Aquino, S. Hirata, M. T. Hackler, T. Risthaus, M. Malagoli, A. Marenich,
   A. Otero-de-la-Roza, J. Mullin, P. Nichols, R. Peverati, J. Pittner, Y. Zhao,
         P.-D. Fan, A. Fonari, R. J. Harrison, M. Dupuis, D. Silverstein,
    D. M. A. Smith, J. Nieplocha, V. Tipparaju, M. Krishnan, B. E. Van Kuiken,
        A. Vazquez-Mayagoitia, L. Jensen, M. Swart, Q. Wu, T. Van Voorhis,
     A. A. Auer, M. Nooijen, L. D. Crosby, E. Brown, G. Cisneros, G. I. Fann,
   H. Fruchtl, J. Garza, K. Hirao, R. A. Kendall, J. A. Nichols, K. Tsemekhman,
    K. Wolinski, J. Anchell, D. E. Bernholdt, P. Borowski, T. Clark, D. Clerc,
   H. Dachsel, M. J. O. Deegan, K. Dyall, D. Elwood, E. Glendening, M. Gutowski,
   A. C. Hess, J. Jaffe, B. G. Johnson, J. Ju, R. Kobayashi, R. Kutteh, Z. Lin,
   R. Littlefield, X. Long, B. Meng, T. Nakajima, S. Niu, L. Pollack, M. Rosing,
   K. Glaesemann, G. Sandrone, M. Stave, H. Taylor, G. Thomas, J. H. van Lenthe,
                               A. T. Wong, Z. Zhang.

 Total times  cpu:        6.6s     wall:        6.6s
