40
-0.00148219 (energy)
C	-3.0960139	1.1758786	1.2824156
C	-1.9010647	0.5898756	1.1355334
H	-3.6372843	1.1073530	2.2198689
H	-3.5585093	1.7348327	0.4728898
H	-1.4396958	0.0327156	1.9415193
C	-1.1630310	0.6828882	-0.1422697
O	-1.5503287	1.2712593	-1.1375240
O	0.0000000	0.0000000	0.0000000
C	0.8539013	-0.0112856	-1.1529930
C	0.4746491	-1.1552978	-2.0745933
H	1.8775764	-0.1539861	-0.7915211
H	0.8292267	0.9510119	-1.6773635
H	0.5054735	-2.1086166	-1.5368588
H	1.1571205	-1.2087767	-2.9274805
H	-0.5461287	-1.0348025	-2.4509189
C	4.4522798	-4.6679369	2.3814017
H	4.7690999	-5.1649194	0.3790423
C	4.5637794	-4.3601285	1.0820191
H	4.2083648	-3.9302658	3.1385917
H	4.5847801	-5.6927060	2.7146683
C	4.3818532	-3.0432646	0.4954078
C	4.6802469	-1.8925786	1.1275568
H	5.1166055	-1.9311048	2.1211778
O	3.8191070	-3.0792701	-0.7677180
C	4.8158078	-3.1469903	-1.7877699
H	4.3071603	-3.1157589	-2.7558179
H	5.3752446	-4.0864142	-1.7288358
H	5.5037880	-2.2967647	-1.7375560
S	4.4014431	-0.3186006	0.4466271
C	4.7946927	0.6786255	1.8705461
C	6.0729437	1.2272996	2.0130519
C	6.3811765	2.0106068	3.1272938
H	6.8354437	1.0499712	1.2585875
C	5.4119517	2.2521721	4.1001910
H	7.3762526	2.4348775	3.2337179
C	3.8241037	0.9308109	2.8456022
C	4.1334039	1.7141098	3.9593444
H	5.6515974	2.8642928	4.9660820
H	3.3753481	1.9070700	4.7140769
H	2.8220795	0.5207837	2.7429524
