40
-0.000352713 (energy)
C	-0.2924277	-0.4138004	-0.3653805
C	0.2976075	0.4448945	0.4756778
H	-0.0641628	-0.3989740	-1.4256462
H	-1.0137594	-1.1477568	-0.0151630
H	1.0162471	1.1764983	0.1275185
C	-0.0134549	0.4251268	1.9210066
O	-0.7984229	-0.3352884	2.4616591
O	0.7223018	1.3961668	2.5167932
C	0.5490570	1.5185131	3.9358370
C	-0.6222647	2.4323743	4.2437434
H	1.4708452	1.9550695	4.3341597
H	0.4272354	0.5373129	4.4091184
H	-0.4849400	3.4078065	3.7656228
H	-0.7262993	2.5794157	5.3224461
H	-1.5575785	2.0165003	3.8559752
C	5.0033953	4.7452976	-1.8899380
H	4.1169315	4.6754162	-0.0015238
C	4.4671600	4.0916079	-0.8503637
H	5.3377883	4.2395810	-2.7896169
H	5.0988854	5.8265512	-1.8665536
C	4.2512134	2.6575506	-0.7598816
C	5.0457706	1.7408445	-1.3438835
H	5.9247084	2.0712600	-1.8892914
O	3.1114449	2.3187617	-0.0530462
C	3.3866248	2.1363365	1.3360188
H	2.4599132	1.8173605	1.8220996
H	3.7070356	3.0750786	1.7997644
H	4.1411827	1.3601279	1.4999226
S	4.7474749	0.0301440	-1.2862048
C	6.0100480	-0.5148958	-2.4199999
C	7.2465850	-0.9539960	-1.9368396
C	8.2355414	-1.3833206	-2.8243971
H	7.4474736	-0.9658834	-0.8683965
C	7.9905179	-1.3798438	-4.1970700
H	9.1952335	-1.7236657	-2.4440492
C	5.7670045	-0.5210583	-3.7974130
C	6.7565803	-0.9504747	-4.6839720
H	8.7597743	-1.7167385	-4.8874579
H	6.5624185	-0.9533467	-5.7534561
H	4.8061894	-0.1935871	-4.1876807
