40
0.000226117 (energy)
C	-2.0926860	-3.2194518	3.3696486
C	-1.2247328	-2.9531110	2.3854751
H	-2.3524005	-4.2423494	3.6200822
H	-2.5613851	-2.4250076	3.9448383
H	-0.7574676	-3.7440320	1.8118820
C	-0.8706194	-1.5588737	2.0436681
O	-1.3121657	-0.5651314	2.5952332
O	0.0168732	-1.5958186	1.0188705
C	0.4782589	-0.3185528	0.5558556
C	-0.4714940	0.2337009	-0.4905326
H	1.4653139	-0.4776349	0.1093679
H	0.6107568	0.3833538	1.3873369
H	-0.5919798	-0.4777149	-1.3141199
H	-0.0978299	1.1795369	-0.8927927
H	-1.4668098	0.4027765	-0.0675819
C	2.9498899	1.8164769	-6.4806147
H	4.5387018	1.5100454	-5.1620601
C	3.4976433	1.2813686	-5.3809791
H	1.9081470	1.6701797	-6.7458673
H	3.5437794	2.4435726	-7.1385059
C	2.8157219	0.4531436	-4.4009961
C	1.8050634	-0.3846861	-4.6998947
H	1.4901165	-0.4880555	-5.7339639
O	3.2716674	0.6452096	-3.1092179
C	4.3379903	-0.2481283	-2.7876477
H	4.6106011	-0.0815867	-1.7413390
H	5.2198913	-0.0454828	-3.4042070
H	4.0355322	-1.2946014	-2.8978068
S	0.9505603	-1.3252793	-3.5150267
C	-0.3423655	-1.9794125	-4.5528626
C	-0.2119362	-3.2502328	-5.1214402
C	-1.2255038	-3.7643853	-5.9328838
H	0.6772277	-3.8477645	-4.9359366
C	-2.3746053	-3.0125404	-6.1749051
H	-1.1195091	-4.7527228	-6.3727272
C	-1.5006885	-1.2329739	-4.7926379
C	-2.5134832	-1.7480084	-5.6041993
H	-3.1645825	-3.4143702	-6.8044747
H	-3.4116441	-1.1637765	-5.7871838
H	-1.6218990	-0.2479295	-4.3479951
