40
0.000357227 (energy)
C	0.4825148	-5.0447424	-0.6453606
C	0.4814078	-3.9574067	0.1360340
H	0.9272000	-5.9735852	-0.3047816
H	0.0411447	-5.0315151	-1.6386789
H	0.9210536	-3.9697460	1.1257113
C	-0.1244791	-2.6910203	-0.3279622
O	-0.6546959	-2.5203756	-1.4126104
O	0.0227393	-1.7743056	0.6605614
C	-0.5175538	-0.4745840	0.3822187
C	0.5078465	0.3740468	-0.3460144
H	-0.7575792	-0.0147365	1.3465132
H	-1.4542750	-0.5443784	-0.1828228
H	1.4362211	0.4351117	0.2313218
H	0.1272224	1.3860099	-0.5106347
H	0.7639942	-0.0649277	-1.3154560
C	6.2057375	-3.6382338	-1.2280967
H	5.5555083	-2.9145234	-3.0747843
C	5.5713512	-2.7453286	-2.0000083
H	6.2312824	-3.5627827	-0.1461334
H	6.7038162	-4.4929017	-1.6755730
C	4.8409131	-1.5781282	-1.5358492
C	5.1671762	-0.8786305	-0.4326788
H	6.0453963	-1.1665910	0.1373949
O	3.7358547	-1.2790053	-2.3122756
C	4.0617129	-0.3744397	-3.3677764
H	3.1377926	-0.1383822	-3.9039318
H	4.7579019	-0.8331901	-4.0775855
H	4.4802473	0.5613205	-2.9831940
S	4.2532578	0.4777079	0.1537533
C	5.0945806	0.7360449	1.7036205
C	6.1164252	1.6857977	1.7989081
C	6.7745698	1.8903915	3.0134450
H	6.4055886	2.2724084	0.9303802
C	6.4106492	1.1502128	4.1377122
H	7.5683501	2.6297452	3.0825595
C	4.7283649	0.0020879	2.8365671
C	5.3871466	0.2074192	4.0504416
H	6.9214732	1.3117870	5.0836730
H	5.0985030	-0.3655897	4.9278519
H	3.9276860	-0.7317747	2.7811513
