40
0.00118856 (energy)
C	-2.2800877	4.5531391	-0.4109270
C	-2.1513356	3.3546211	0.1720440
H	-3.1816446	5.1415641	-0.2788694
H	-1.4911295	4.9716610	-1.0306430
H	-2.9369548	2.9369148	0.7894788
C	-0.9226179	2.5521282	-0.0079111
O	0.0444917	2.8850023	-0.6716920
O	-1.0753594	1.3982530	0.6881205
C	0.0347066	0.4910377	0.6299686
C	-0.0864410	-0.4077753	-0.5863380
H	-0.0000794	-0.1157979	1.5407245
H	0.9901261	1.0283470	0.6378405
H	-1.0444547	-0.9379426	-0.5787408
H	0.7234659	-1.1423701	-0.6079015
H	-0.0530651	0.1763722	-1.5114245
C	3.8280285	0.3312789	-4.9438414
H	3.0440410	2.0689987	-4.0938396
C	3.4501244	1.0786959	-3.8978349
H	4.2035546	-0.6806702	-4.8346201
H	3.7452093	0.7211306	-5.9537578
C	3.4769890	0.6744130	-2.5024232
C	4.3866876	-0.1719242	-1.9838758
H	5.1759585	-0.5581106	-2.6219098
O	2.4387246	1.2051770	-1.7582706
C	2.7973992	2.4548278	-1.1681606
H	1.9567104	2.7882631	-0.5526300
H	2.9779062	3.2145102	-1.9357932
H	3.6755062	2.3589795	-0.5212735
S	4.3765542	-0.7021708	-0.3293247
C	5.6635899	-1.9318546	-0.4191434
C	6.9744357	-1.6049680	-0.0584431
C	7.9829705	-2.5684788	-0.1263933
H	7.2185732	-0.6004434	0.2782995
C	7.6841348	-3.8628052	-0.5502985
H	9.0004831	-2.3095835	0.1549420
C	5.3680953	-3.2338714	-0.8360486
C	6.3772968	-4.1964635	-0.9036823
H	8.4691047	-4.6132708	-0.6004257
H	6.1421740	-5.2068517	-1.2282375
H	4.3511837	-3.5064783	-1.1086070
