40
0.00179127 (energy)
C	-3.2455652	-1.9815678	-3.4115147
C	-2.9409430	-1.0811715	-2.4684508
H	-4.2759815	-2.1547058	-3.7026392
H	-2.4757133	-2.5635609	-3.9117904
H	-3.7073620	-0.5010564	-1.9694817
C	-1.5364684	-0.8450347	-2.0711895
O	-0.5670049	-1.4182385	-2.5384036
O	-1.5331790	0.1074690	-1.1058171
C	-0.2399504	0.4696983	-0.6008246
C	0.1595829	-0.4588940	0.5305606
H	-0.3191197	1.4949672	-0.2246706
H	0.5122192	0.4768708	-1.3981822
H	-0.6004129	-0.4537196	1.3187895
H	1.1175683	-0.1549631	0.9617610
H	0.2466674	-1.4918004	0.1789243
C	5.4625965	2.2809610	1.0315460
H	4.8123673	1.0287999	2.5697606
C	4.8282102	1.1952597	1.4945576
H	5.4881414	2.5388944	-0.0219282
H	5.9606752	2.9585623	1.7182401
C	4.0977721	0.2250835	0.6967114
C	4.4240352	-0.1048692	-0.5671767
H	5.3022553	0.3431526	-1.0223489
O	2.9927137	-0.2964681	1.3450141
C	3.3185719	-1.4797159	2.0745656
H	2.3946516	-1.8679660	2.5132541
H	4.0147609	-1.2591534	2.8904290
H	3.7371063	-2.2537213	1.4230547
S	3.5101168	-1.2179127	-1.5391286
C	4.3514396	-0.9915402	-3.0939862
C	5.3732842	-1.8670525	-3.4742340
C	6.0314288	-1.6917065	-4.6933371
H	5.6624476	-2.6904846	-2.8258420
C	5.6675082	-0.6440622	-5.5384895
H	6.8252091	-2.3748098	-4.9845255
C	3.9852239	0.0528241	-3.9493013
C	4.6440056	0.2272657	-5.1679982
H	6.1783322	-0.5096086	-6.4886843
H	4.3553620	1.0404508	-5.8289961
H	3.1845450	0.7348730	-3.6728335
