40
0.00326828 (energy)
C	-2.7321159	1.0530259	2.0097915
C	-1.5595966	0.5708547	1.5789932
H	-2.9674706	1.0786774	3.0682990
H	-3.4801315	1.4313216	1.3176725
H	-0.8139119	0.1936617	2.2678920
C	-1.2385021	0.5355296	0.1361570
O	-1.9724714	0.9211849	-0.7578621
O	0.0000000	0.0000000	0.0000000
C	0.4811928	-0.1071092	-1.3474601
C	0.0175685	-1.4121010	-1.9671309
H	1.5749513	-0.0911471	-1.2987421
H	0.1735499	0.7548002	-1.9508321
H	0.3336123	-2.2625044	-1.3540602
H	0.4279932	-1.5307296	-2.9738695
H	-1.0745958	-1.4519188	-2.0281154
C	2.6093895	-2.4398818	0.0829537
H	3.9659971	-2.0775590	-1.4614386
C	3.4014576	-1.6379238	-0.6416597
H	1.9840443	-2.0713418	0.8892488
H	2.5554333	-3.5014325	-0.1383456
C	3.5466315	-0.2015969	-0.4766449
C	3.4390083	0.4323932	0.7062343
H	3.2691537	-0.1502856	1.6066846
O	3.7570337	0.4682084	-1.6685167
C	5.1479265	0.5901788	-1.9669206
H	5.2432610	1.1746425	-2.8867729
H	5.6001569	-0.3917810	-2.1407094
H	5.6870353	1.1162682	-1.1723682
S	3.5499922	2.1566465	0.8890908
C	3.0961459	2.2880108	2.6076418
C	4.0861285	2.3577138	3.5927065
C	3.7313700	2.4629181	4.9392544
H	5.1380067	2.3318228	3.3189366
C	2.3865677	2.5036609	5.3054868
H	4.5045204	2.5166951	5.7013927
C	1.7488747	2.3373033	2.9802077
C	1.3952842	2.4424348	4.3268950
H	2.1109272	2.5883115	6.3536975
H	0.3467720	2.4804650	4.6109358
H	0.9676332	2.2959701	2.2247839
