7
	Energy:       1.5145534
C         -2.74476        2.32609        0.01967
H         -3.06524        1.29547        0.09994
C         -1.47186        2.71202        0.07729
H         -0.67317        1.99156        0.21118
H         -1.20657        3.76060       -0.00900
O         -3.75967        3.22281       -0.14856
H         -4.60026        2.73216       -0.16267
