7
	Energy:       0.0820242
C         -2.76787        2.40488        0.00991
H         -3.14376        1.39134        0.08423
C         -1.47583        2.72776        0.07539
H         -0.72650        1.95400        0.21094
H         -1.12869        3.75151       -0.00215
O         -3.78064        3.30386       -0.15839
H         -3.39843        4.19634       -0.21992
