4
	Energy:       0.0541621
C         -3.40148        2.31096       -0.00000
H         -4.49249        2.37912       -0.13705
H         -3.00284        1.29309        0.13705
O         -2.68003        3.30053        0.00000
