8
	Energy:     -20.5334900
C         -6.00521        0.88378        0.05325
H         -6.82309        1.60020       -0.06615
H         -6.14611        0.35108        0.99703
H         -6.02506        0.18836       -0.78946
C         -4.70004        1.61968        0.07411
O         -4.58856        2.82857       -0.04906
O         -3.63939        0.79929        0.24264
H         -3.88265       -0.14202        0.32545

