6
	Energy:       0.6657691
O         -6.13813        3.13508       -0.30414
H         -6.20079        2.53778       -1.06884
C         -4.76560        3.24847        0.02388
H         -4.65939        3.91543        0.88266
H         -4.21982        3.66372       -0.82688
H         -4.36848        2.26300        0.27937
