24
	Energy:      28.6067716
H         -3.49092        2.39726        1.07742
O         -5.18081        4.15668        3.04704
C        -4.19212        4.14912        2.11588
O         -3.28157        4.96478        2.11099
C         -4.72827        0.73454        3.00479
H        -3.79620        1.27680        3.11308
H         -4.83299       -0.14790        3.62979
C        -5.70314        1.11573        2.16329
C        -6.97223        0.29011        2.11754
H         -7.83858        0.90637        2.37977
H         -6.94764       -0.55091        2.81928
H        -7.12346       -0.12575        1.11612
N         -5.62888        2.24748        1.34260
C        -6.11598        3.84532       -0.35398
C         -4.61165        3.64142       -0.31344
C         -4.37939        3.03732        1.07177
H         -4.06565        4.57356       -0.48636
H         -4.31653        2.92233       -1.08740
C        -6.65020        2.59661        0.33427
H         -6.50090        3.95671       -1.37155
H        -6.39314        4.74050        0.21541
H         -6.74930        1.78143       -0.39179
H        -7.62433        2.78949        0.79460
H         -5.76841        3.39216        2.82983
