16
	Energy:      24.4428295
C          0.14359        2.55571       -0.05067
N          0.71526        3.50264       -0.05067
H          0.23977        4.36470       -0.04704
H          1.69957        3.48341       -0.05430
N          0.84918        1.36631       -0.05586
H          1.86331        1.40235       -0.07560
C         -1.13129        0.06321       -0.00863
C          0.21348        0.13676       -0.03499
H          0.86336       -0.73185       -0.04137
H         -1.69209       -0.86035        0.00865
C         -3.18058        1.53003        0.02045
N         -1.83737        1.26835       -0.00353
H         -3.92563        0.74992        0.04026
C         -3.28198        2.90626        0.01271
N         -2.04252        3.50438       -0.01533
C         -1.19998        2.49993       -0.02445






