19
-0.00332114 (energy)
C	-1.3080222	-2.0857941	-0.3073046
H	-2.2664076	-2.5492553	-0.5303347
C	-1.2212977	-0.6947186	-0.2862006
H	-2.1012067	-0.0909216	-0.4904511
C	-0.0058366	-0.0839506	-0.0015274
H	0.0694955	0.9995854	0.0181864
C	1.1199623	-0.8661700	0.2614992
H	2.0609077	-0.3704025	0.4846709
C	1.0518949	-2.2652492	0.2410100
N	2.1919163	-2.9997986	0.5251773
H	2.1815314	-4.0082881	0.4958698
H	3.0690422	-2.5325196	0.7049540
C	-0.3201924	-4.3789038	-0.0768039
H	-1.3447797	-4.6831450	-0.3159298
H	-0.0692363	-4.8055837	0.8996236
H	0.3365635	-4.8048768	-0.8422314
C	-0.1795022	-2.8821133	-0.0441076
Br	4.5726251	1.1863312	-0.0191998
H	4.1650276	1.9210171	1.1636830
