19
-0.00329487 (energy)
C	-1.9255461	1.5486303	-0.2234095
H	-2.2843943	2.5746252	-0.2634555
C	-0.5599159	1.3184851	-0.0648376
H	0.1277622	2.1557564	0.0164315
C	-0.0823373	0.0145306	-0.0096711
H	0.9803763	-0.1730135	0.1151520
C	-0.9719934	-1.0561160	-0.1131193
H	-0.5799801	-2.0685333	-0.0650985
C	-2.3469613	-0.8433684	-0.2764506
N	-3.1933825	-1.9374312	-0.3574476
H	-4.1853216	-1.8182449	-0.4984057
H	-2.8190722	-2.8752924	-0.3393540
C	-4.2940045	0.7725313	-0.4979371
H	-4.4885608	1.8501223	-0.5195775
H	-4.8653695	0.3512864	0.3354537
H	-4.6591636	0.3533310	-1.4411182
C	-2.8293554	0.4767421	-0.3289507
Br	3.9738833	0.0034374	0.0465237
H	3.8780334	1.4454705	0.1748370
