19
-0.00326191 (energy)
C	-0.9640625	-0.7516809	-0.7572075
H	-0.5671562	-1.3479407	-1.5757312
C	-0.0824725	0.0011171	0.0168415
H	0.9819858	-0.0133010	-0.2005284
C	-0.5707093	0.7707333	1.0660019
H	0.1097911	1.3612227	1.6729247
C	-1.9396928	0.7855878	1.3382829
H	-2.3028256	1.3955933	2.1610812
C	-2.8395597	0.0324675	0.5730869
N	-4.1916206	0.0922052	0.8702828
H	-4.8624920	-0.4559830	0.3531377
H	-4.5188061	0.6398372	1.6532694
C	-3.2582004	-1.5702571	-1.3523167
H	-2.7035975	-2.1093333	-2.1277749
H	-3.9890983	-0.9291155	-1.8554777
H	-3.7817848	-2.3151690	-0.7443478
C	-2.3445315	-0.7434974	-0.4903874
Br	3.9737318	0.0390092	-0.0308164
H	3.8174742	1.2647061	-0.7913171
