19
-0.00325092 (energy)
C	0.0984543	-1.2585255	0.6886393
H	0.0599374	-1.2118689	1.7746324
C	0.0082898	-0.0736104	-0.0399923
H	-0.0987057	0.8764663	0.4761814
C	0.0573185	-0.1125407	-1.4283376
H	-0.0108925	0.8067006	-2.0031910
C	0.1965668	-1.3366780	-2.0845170
H	0.2356661	-1.3466258	-3.1704919
C	0.2850018	-2.5374647	-1.3684402
N	0.4395330	-3.7265480	-2.0628203
H	0.4829489	-4.6101982	-1.5777479
H	0.4477750	-3.7309630	-3.0727370
C	0.3329643	-3.7488531	0.8634654
H	0.2777041	-3.5304090	1.9352637
H	1.2860739	-4.2548551	0.6791026
H	-0.4933728	-4.4254803	0.6226272
C	0.2384363	-2.4963775	0.0366560
Br	3.8713121	0.6191132	0.2135748
H	2.9793811	-0.4789701	-0.1085791
