19
-0.00314825 (energy)
C	-1.1807402	0.3922233	-2.5753857
H	-1.6442425	0.5450623	-3.5474182
C	-1.9183690	0.6717053	-1.4261028
H	-2.9386528	1.0359904	-1.5088456
C	-1.3441103	0.4811094	-0.1749745
H	-1.9129620	0.6953136	0.7253799
C	-0.0333822	0.0112552	-0.0764734
H	0.3974757	-0.1340142	0.9105562
C	0.7237036	-0.2712806	-1.2207943
N	2.0148841	-0.7518957	-1.0730618
H	2.5938974	-0.9428460	-1.8769893
H	2.4180832	-0.8586347	-0.1532485
C	0.8976554	-0.3701560	-3.7528151
H	0.2917667	-0.1643836	-4.6416793
H	1.1884141	-1.4249428	-3.7892791
H	1.7921185	0.2584383	-3.8116835
C	0.1402841	-0.0809752	-2.4863209
Br	5.0046631	0.0047704	1.0861414
H	4.9832811	-0.5580035	2.4232798
