19
-0.00304892 (energy)
C	-0.0755183	0.0297929	-0.0226063
H	0.8991834	-0.3547393	0.2691692
C	-0.3315619	0.2609866	-1.3731797
H	0.4353748	0.0579367	-2.1155460
C	-1.5715538	0.7505012	-1.7658853
H	-1.7792325	0.9319268	-2.8166317
C	-2.5525300	1.0074535	-0.8066487
H	-3.5168271	1.3874221	-1.1333354
C	-2.3113268	0.7843808	0.5551645
N	-3.3215028	1.0380573	1.4690328
H	-3.1718828	0.9097753	2.4585658
H	-4.2057000	1.4166883	1.1610506
C	-0.7368193	0.0206800	2.3960480
H	0.2818655	-0.3618884	2.5203290
H	-1.4222167	-0.7281115	2.8059103
H	-0.8142516	0.9451086	2.9775087
C	-1.0570986	0.2859720	0.9509577
Br	3.8681030	-0.0983455	-0.0484810
H	3.6585316	1.0741382	-0.8770173
