19
-0.00296436 (energy)
C	-0.0401939	-0.0414643	0.0613746
H	0.4785817	0.4937081	-0.7307767
C	-0.8552742	0.6749170	0.9363029
H	-0.9648658	1.7498299	0.8219317
C	-1.5277700	0.0086392	1.9537729
H	-2.1659233	0.5596895	2.6387676
C	-1.3834314	-1.3727039	2.0935271
H	-1.9193793	-1.8763940	2.8935429
C	-0.5657135	-2.1079518	1.2256426
N	-0.4668793	-3.4798788	1.3930070
H	0.1315318	-4.0344452	0.7993925
H	-0.9462550	-3.9373398	2.1552061
C	1.0006061	-2.1646306	-0.7730058
H	1.4470088	-1.4838163	-1.5056309
H	0.4246267	-2.9129233	-1.3268570
H	1.8200939	-2.6556201	-0.2381885
C	0.1118193	-1.4329193	0.1944140
Br	3.9099960	0.3465426	-0.2276301
H	2.9883837	0.1409997	0.8739568
