19
-0.00250162 (energy)
C	0.6365773	-0.6156347	-1.7786262
H	0.3712700	0.2767294	-2.3410671
C	1.2355577	-1.6809540	-2.4489803
H	1.4304768	-1.6128723	-3.5157045
C	1.5834399	-2.8290108	-1.7472927
H	2.0518604	-3.6629412	-2.2623228
C	1.3314455	-2.9086191	-0.3766597
H	1.6130195	-3.8134336	0.1553140
C	0.7270505	-1.8491743	0.3123679
N	0.5123024	-1.9673484	1.6761424
H	0.0583318	-1.2319160	2.1967840
H	0.7516883	-2.8216011	2.1588077
C	-0.2685763	0.4872862	0.2833033
H	-0.4714440	1.3015283	-0.4205273
H	0.3888213	0.8829342	1.0641595
H	-1.2245732	0.1892046	0.7258842
C	0.3783617	-0.6866396	-0.3983227
Br	3.7770677	0.5122579	0.1636537
H	3.4179907	0.3650762	-1.2343849
