19
-0.00237013 (energy)
C	0.3661995	0.9611380	-1.0049455
H	0.9433810	1.8157617	-0.6592272
C	-0.0212552	-0.0080681	-0.0810538
H	0.2530817	0.0960655	0.9650936
C	-0.7606500	-1.1064775	-0.5032078
H	-1.0675641	-1.8653294	0.2109779
C	-1.1108305	-1.2326852	-1.8485400
H	-1.6915190	-2.0971744	-2.1590696
C	-0.7269199	-0.2702097	-2.7912643
N	-1.1123885	-0.4296036	-4.1126159
H	-0.8323838	0.2335041	-4.8196544
H	-1.6286369	-1.2491144	-4.3988129
C	0.4574192	1.9128630	-3.3229596
H	1.0277179	2.6998044	-2.8179788
H	-0.4132092	2.3847689	-3.7896033
H	1.1017143	1.4855958	-4.0981933
C	0.0186320	0.8425304	-2.3621794
Br	4.1053899	-0.0366407	0.6832062
H	3.0075021	-0.9325401	0.3715694
