19
-0.00235295 (energy)
C	-0.9588168	-1.4697203	2.6599865
H	-0.8685698	-1.4645989	3.7439009
C	-1.7751268	-2.4250608	2.0566457
H	-2.3087001	-3.1489984	2.6663529
C	-1.9046402	-2.4465955	0.6731052
H	-2.5400080	-3.1871050	0.1955412
C	-1.2173737	-1.5123297	-0.1036094
H	-1.3333645	-1.5433422	-1.1836806
C	-0.3899659	-0.5475765	0.4855622
N	0.2588002	0.3699034	-0.3251757
H	0.8795955	1.0622808	0.0662889
H	0.1678021	0.3180523	-1.3296905
C	0.6061049	0.4878100	2.5800748
H	0.5886214	0.3573750	3.6673668
H	0.2542392	1.5017332	2.3642149
H	1.6457184	0.3836374	2.2529471
C	-0.2622490	-0.5248673	1.8860352
Br	3.7316948	0.1883309	-0.2473444
H	3.2608691	-0.6515786	-1.3326950
