19
-0.00233497 (energy)
C	-0.2851756	-0.6665674	-2.7667600
H	-0.3924638	-0.9362006	-3.8150102
C	-0.2428513	-1.6807507	-1.8114075
H	-0.3166553	-2.7206985	-2.1173333
C	-0.1044422	-1.3563067	-0.4671601
H	-0.0692404	-2.1410403	0.2832183
C	-0.0085580	-0.0181133	-0.0817796
H	0.1018984	0.2156723	0.9737359
C	-0.0528880	1.0140507	-1.0279021
N	0.0632213	2.3266404	-0.5994283
H	0.0118246	3.0935552	-1.2530474
H	0.1382964	2.5377619	0.3853613
C	-0.2390864	1.7446076	-3.4533468
H	-0.3499756	1.3090517	-4.4521048
H	0.6860993	2.3298133	-3.4500237
H	-1.0932423	2.4091406	-3.2875937
C	-0.1898078	0.6842131	-2.3882742
Br	4.3088968	-0.1416832	0.6650866
H	2.9607175	-0.6669116	0.7730624
