19
-0.00228952 (energy)
C	-1.1145201	-0.8968336	-0.1460758
H	-1.6222821	-0.8733843	-1.1076730
C	-0.0255437	-0.0517391	0.0612958
H	0.3041440	0.6160487	-0.7298391
C	0.6351741	-0.0659264	1.2838639
H	1.4837835	0.5906898	1.4536611
C	0.2048993	-0.9253574	2.2961462
H	0.7325605	-0.9202131	3.2461549
C	-0.8852564	-1.7839006	2.1039491
N	-1.2865174	-2.6070402	3.1438498
H	-2.0530034	-3.2531583	3.0296194
H	-0.7747060	-2.6165180	4.0144693
C	-2.7347138	-2.6594316	0.5992506
H	-3.1292418	-2.5147812	-0.4121578
H	-3.5443249	-2.4410755	1.3030232
H	-2.4431063	-3.7106888	0.6913593
C	-1.5550158	-1.7662919	0.8673148
Br	4.2549571	0.4498135	-0.4274934
H	3.1527543	-0.2532275	-1.0567734
