19
-0.00193812 (energy)
C	1.4702202	-1.2512907	0.4695442
H	2.2894895	-0.5389149	0.4035151
C	1.7526203	-2.5725913	0.8122869
H	2.7768813	-2.8774659	1.0084241
C	0.7190692	-3.4971911	0.9034432
H	0.9309040	-4.5284294	1.1713747
C	-0.5945475	-3.0978272	0.6516632
H	-1.3895255	-3.8345477	0.7305432
C	-0.8961638	-1.7751076	0.3024982
N	-2.2170622	-1.4215652	0.0784492
H	-2.4646806	-0.4830797	-0.1971371
H	-2.9473912	-2.1174715	0.1269591
C	-0.1072935	0.5960843	-0.1517020
H	0.8193775	1.1793904	-0.1753203
H	-0.7712122	1.0620432	0.5835119
H	-0.5608732	0.6587606	-1.1461856
C	0.1503535	-0.8396583	0.2136827
Br	4.8406299	0.0695074	1.8590367
H	5.1949699	0.7965079	0.6544519
