19
-0.00185837 (energy)
C	-0.9446211	3.0431232	0.0450293
H	-0.7337857	4.0310735	-0.3581381
C	-2.0088655	2.8908572	0.9323041
H	-2.6125860	3.7500218	1.2113860
C	-2.2950817	1.6361089	1.4568123
H	-3.1236678	1.5090737	2.1477688
C	-1.5161064	0.5366211	1.0923981
H	-1.7570218	-0.4369181	1.5109079
C	-0.4406789	0.6719337	0.2049176
N	0.2935150	-0.4512358	-0.1406434
H	1.0879728	-0.3832919	-0.7588975
H	0.0809161	-1.3476818	0.2731263
C	0.9831729	2.1529279	-1.2885573
H	1.0608875	3.2005394	-1.5983857
H	0.8340192	1.5524859	-2.1917007
H	1.9328744	1.8775838	-0.8185431
C	-0.1540466	1.9417296	-0.3276350
Br	4.8772455	1.3461469	-0.6321702
H	4.8876900	-0.0623970	-0.2843116
