19
-0.00170884 (energy)
C	0.4272139	-0.6785344	-1.8179184
H	0.1960752	0.2314393	-2.3670670
C	0.8703326	-1.7964297	-2.5229101
H	0.9800599	-1.7510619	-3.6029243
C	1.1723618	-2.9678319	-1.8387923
H	1.5195958	-3.8428324	-2.3809329
C	1.0305431	-3.0181484	-0.4510498
H	1.2741519	-3.9421238	0.0665343
C	0.5830990	-1.9055312	0.2730719
N	0.4742322	-1.9976338	1.6513418
H	0.1330353	-1.2220040	2.1990652
H	0.6763257	-2.8676916	2.1226980
C	-0.1992877	0.5107418	0.2987792
H	-0.3873192	1.3366488	-0.3955153
H	0.5541314	0.8493601	1.0172099
H	-1.1373824	0.3017687	0.8231542
C	0.2808014	-0.7196789	-0.4201254
Br	3.2288190	1.2023763	2.3205427
H	4.3813252	1.4203623	1.4665390
