19
-0.00168601 (energy)
C	-2.1803088	1.5005853	-1.0840181
H	-2.9996539	2.0846855	-1.4969853
C	-0.9201695	2.0874088	-0.9803619
H	-0.7675575	3.1116909	-1.3091243
C	0.1389355	1.3577736	-0.4537206
H	1.1236407	1.8085339	-0.3683709
C	-0.0650601	0.0428914	-0.0318865
H	0.7746593	-0.5107004	0.3796676
C	-1.3237447	-0.5638768	-0.1319910
N	-1.4819811	-1.8656840	0.3154707
H	-2.3696599	-2.3386737	0.2359413
H	-0.6911130	-2.3831058	0.6715908
C	-3.7718681	-0.4148713	-0.7920322
H	-4.4795966	0.3001375	-1.2249360
H	-4.1556473	-0.7037599	0.1916864
H	-3.7475728	-1.2915150	-1.4474451
C	-2.3954723	0.1766744	-0.6622134
Br	3.7202191	-0.0386786	0.0735756
H	3.9677113	-1.4681876	0.0926143
