19
-0.00398667 (energy)
C	0.6492549	-2.2761838	1.6056317
H	0.8914106	-3.1333911	2.2298093
C	0.0479978	-1.1640158	2.1926834
H	-0.1718410	-1.1617886	3.2567298
C	-0.2674201	-0.0583504	1.4120186
H	-0.7348268	0.8127403	1.8624026
C	0.0194951	-0.0677872	0.0459790
H	-0.2321252	0.8071310	-0.5474640
C	0.6201229	-1.1781658	-0.5612946
N	0.9013882	-1.1347761	-1.9173808
H	1.3121625	-1.9265718	-2.3889123
H	0.6400847	-0.3292672	-2.4677397
C	1.5916780	-3.5162193	-0.3594234
H	1.7677290	-4.2863960	0.3990994
H	2.5611733	-3.2568419	-0.7967420
H	0.9480317	-3.9538769	-1.1293816
C	0.9417095	-2.2952328	0.2304728
Br	4.4612961	0.9025012	-0.1604066
H	3.1131169	0.3888740	-0.0064240
