19
-0.00359121 (energy)
C	-0.6694634	-3.0929929	-0.3743653
H	-1.0956670	-3.8191679	-1.0628866
C	-0.1838396	-3.5350588	0.8551894
H	-0.2342428	-4.5891876	1.1136484
C	0.3660024	-2.6226260	1.7476926
H	0.7478592	-2.9595488	2.7072666
C	0.4288845	-1.2701585	1.4080590
H	0.8647601	-0.5722485	2.1179205
C	-0.0575819	-0.8077996	0.1784045
N	0.0419025	0.5412977	-0.1215991
H	-0.3199001	0.9093307	-0.9885872
H	0.4233103	1.1880235	0.5538955
C	-1.1459499	-1.3014812	-2.0627779
H	-1.5389981	-2.1498488	-2.6331362
H	-0.3513293	-0.8428317	-2.6599915
H	-1.9642887	-0.5861817	-1.9311391
C	-0.6109053	-1.7326922	-0.7252321
Br	3.7346512	0.3750445	-0.0159432
H	3.1591388	-0.9362793	0.2171366
