11
0.00120888 (energy)
C	-0.0281465	0.0489677	-0.0621113
H	0.3351353	-0.5830503	0.7395492
C	0.6203731	1.1206624	-0.5190570
H	1.5732976	1.4075477	-0.0852303
H	0.2322192	1.7348926	-1.3231966
O	-1.2279720	-0.3899007	-0.5417009
H	-1.5144790	0.2046635	-1.2564024
C	2.7728516	1.4011497	2.8177908
H	2.7214159	0.3192676	3.0193274
H	3.7795663	1.7983813	2.6116641
O	1.7774779	2.1145551	2.8225676
