11
0.00332859 (energy)
C	0.0202883	-0.0813599	0.0041024
H	-0.2415690	0.9687388	-0.0488460
C	-0.8222859	-1.0752439	-0.2790405
H	-1.8407600	-0.8564380	-0.5846682
H	-0.5320915	-2.1176207	-0.2172292
O	1.3158882	-0.2556103	0.3955746
H	1.5060049	-1.2090893	0.4291075
C	1.5158336	3.6228610	-1.3668178
H	0.4164239	3.6152581	-1.2963064
H	1.9525742	4.4934410	-1.8817003
O	2.2063360	2.7236642	-0.9037946
