11
-0.00344981 (energy)
C	0.1563708	0.7959586	1.1586006
H	-0.6168380	0.9371118	1.9044586
C	0.0104371	0.0459147	0.0658773
H	-0.9265945	-0.4696047	-0.1206309
H	0.8023223	-0.0770939	-0.6637591
O	1.2926165	1.4804173	1.4789986
H	1.9563375	1.3253041	0.7848767
C	5.0036058	0.2923972	0.1773157
H	5.5616323	-0.1512627	1.0172583
H	5.4024846	1.2445258	-0.2075255
O	4.0065286	-0.2374064	-0.2969039
