11
-0.00343727 (energy)
C	-0.2856342	0.6144129	1.2414778
H	-1.1925294	0.4401153	1.8082594
C	-0.0149620	0.0359434	0.0710009
H	-0.7234260	-0.6575626	-0.3713812
H	0.9015762	0.2295905	-0.4740141
O	0.5396940	1.4970416	1.8755070
H	1.3374767	1.6228067	1.3331817
C	3.7832098	-1.6101953	-0.1574455
H	4.1309394	-2.2599201	-0.9763919
H	3.5905344	-2.1170432	0.8015838
O	3.6216438	-0.4050668	-0.3033929
