11
-0.00342731 (energy)
C	-0.0847396	0.5099021	1.2840521
H	-0.1919184	-0.2491379	2.0498530
C	-0.0367022	1.8189403	1.5330863
H	-0.1062429	2.1828923	2.5535160
H	0.0711675	2.5560061	0.7458883
O	-0.0056291	-0.0423815	0.0386938
H	0.0893372	0.6726253	-0.6140984
C	3.3456452	0.0624428	-0.2525776
H	2.7264118	-0.3004505	0.5832392
H	4.0425305	-0.6748018	-0.6822021
O	3.2647434	1.2087615	-0.6758353
