11
-0.00340824 (energy)
C	0.0448911	-0.0355273	0.0614043
H	-0.5345103	0.4230172	-0.7311303
C	-0.2710918	0.0382930	1.3546993
H	-1.1559099	0.5827426	1.6697316
H	0.3280405	-0.4309710	2.1263303
O	1.1336087	-0.6947564	-0.4308395
H	1.6219432	-1.0889077	0.3125077
C	3.4865717	1.4588339	-0.6966589
H	2.7833822	2.0834508	-0.1229782
H	3.7716684	1.8509710	-1.6859537
O	3.9222272	0.3993946	-0.2636098
