11
-0.00318978 (energy)
C	-0.5008778	1.2294841	0.3917411
H	0.0344826	2.0733749	-0.0269685
C	-1.5474308	1.3420038	1.2102596
H	-1.9131020	2.3233627	1.4962544
H	-2.0638692	0.4790280	1.6141740
O	0.0302108	0.0430587	-0.0236294
H	-0.4794668	-0.6833720	0.3750161
C	3.7388888	-0.3142520	-0.0682227
H	3.8243010	0.7774124	-0.1894864
H	2.7198833	-0.7235375	-0.1569301
O	4.7116659	-1.0252916	0.1505611
