11
-0.00312938 (energy)
C	-1.3695727	-0.1711550	-0.1046297
H	-1.9459792	0.6116734	0.3739257
C	-1.9088320	-1.2116117	-0.7406767
H	-2.9878937	-1.3132813	-0.8028288
H	-1.3065560	-1.9803717	-1.2106283
O	-0.0282130	0.0429084	0.0262294
H	0.4477610	-0.6809879	-0.4162791
C	3.1484449	-0.1070982	0.0405736
H	3.0264544	0.3739863	-0.9429951
H	3.2619745	0.5798943	0.8943349
O	3.1572607	-1.3242105	0.1758472
