11
-0.00312 (energy)
C	0.0594497	0.0582261	0.0111060
H	-0.7078574	-0.6932876	-0.1322367
C	0.5081595	0.8596773	-0.9554560
H	0.1029525	0.7827944	-1.9596821
H	1.2775287	1.6031599	-0.7825765
O	0.5054583	0.0793881	1.3006103
H	1.1900522	0.7656823	1.3826016
C	3.9848365	-1.2342481	-0.2736021
H	4.1514471	-1.9850842	0.5152055
H	4.3908166	-1.4895118	-1.2654572
O	3.3882079	-0.1859078	-0.0620468
