11
-0.00298977 (energy)
C	-0.1794056	1.0330031	-0.9037085
H	-0.4063177	1.9855336	-0.4397294
C	-0.0777040	0.8503719	-2.2206022
H	-0.2249313	1.6843532	-2.8998467
H	0.1506744	-0.1151075	-2.6568081
O	-0.0119187	0.0494040	0.0272448
H	0.1891579	-0.7840772	-0.4323945
C	3.6466428	-0.3526175	0.0670652
H	4.4192821	-0.2487564	0.8455077
H	2.7683612	0.3029464	0.1793745
O	3.7567065	-1.1439173	-0.8610886
