11
-0.0029718 (energy)
C	-1.2385927	-0.4284708	-0.4452772
H	-1.3411612	-1.5065246	-0.4821514
C	-2.2028886	0.4246775	-0.7919439
H	-3.1625017	0.0522490	-1.1369273
H	-2.0716156	1.4994441	-0.7447537
O	-0.0027719	-0.0575883	-0.0009954
H	0.0439922	0.9139682	0.0157980
C	2.7909258	0.0343853	0.0687822
H	2.7421491	0.6157662	-0.8657489
H	2.6296016	-1.0502194	-0.0378152
O	3.0098486	0.5587198	1.1536256
