11
-0.00291919 (energy)
C	0.0277082	-0.0233296	0.0757355
H	-0.3299173	0.2777815	-0.9017696
C	-0.7386510	-0.0795782	1.1654309
H	-1.7898331	0.1853693	1.1071837
H	-0.3529905	-0.3848206	2.1311823
O	1.3557659	-0.3359669	0.0490187
H	1.6322180	-0.5993616	0.9437748
C	4.2855356	1.1827144	-1.3669838
H	4.3894824	1.5553173	-2.3985328
H	3.3312304	1.4201348	-0.8703060
O	5.1715828	0.5470783	-0.8096453
