11
-0.00286141 (energy)
C	-0.1463935	0.1675072	1.3661922
H	0.2227702	-0.6665514	1.9511234
C	-0.6943753	1.2630935	1.8927975
H	-0.7929961	1.3599601	2.9695819
H	-1.0553156	2.0825196	1.2821867
O	0.0203838	-0.0456819	0.0286837
H	-0.3235053	0.7250042	-0.4552318
C	3.3684382	0.0908721	-0.2823319
H	2.6594649	-0.6675873	-0.6508799
H	3.8241326	-0.1217478	0.6979187
O	3.6323622	1.1027221	-0.9197036
