11
-0.00484183 (energy)
C	-0.1574719	-1.3287150	0.4583407
H	-1.1122140	-1.8369097	0.5238060
C	-0.0074441	-0.0761642	0.0264674
H	-0.8725576	0.4999953	-0.2868896
H	0.9611933	0.4068783	-0.0282528
O	0.8663372	-2.1303887	0.8722576
H	1.7003089	-1.6352485	0.7966372
C	4.6270473	1.3412714	0.1601937
H	5.6901864	1.0620679	0.2344365
H	4.4011791	2.4037063	0.3445074
O	3.7546157	0.5251715	-0.1092186
