11
-0.00264674 (energy)
C	0.0032304	-1.3765877	0.3245814
H	-0.7496883	-2.0792905	-0.0121708
C	0.0015192	-0.0785966	0.0194211
H	-0.7868179	0.3344641	-0.6022534
H	0.7687286	0.6013724	0.3710099
O	0.9484429	-1.9867640	1.0968840
H	1.6008849	-1.3210679	1.3753785
C	3.2364522	1.1931727	-1.3614904
H	2.5332626	2.0348093	-1.2570700
H	3.5215489	0.9380476	-2.3946346
O	3.6721076	0.5820305	-0.3937877
