11
-0.0026114 (energy)
C	-0.1463935	-0.9736068	-0.9729488
H	0.2227702	-0.6769774	-1.9475304
C	-0.6943753	-2.1610184	-0.7128022
H	-0.7929961	-2.9006881	-1.5013049
H	-1.0553156	-2.4303016	0.2729926
O	0.0203838	0.0183124	-0.0507370
H	-0.3235053	-0.2906309	0.8052334
C	3.1754483	0.1600702	0.1880333
H	3.2253993	0.7117269	-0.7642855
H	2.6834121	-0.8245397	0.1411338
O	3.6360902	0.6111846	1.2292076
