11
-0.00259256 (energy)
C	0.0126535	-1.3601551	-0.2564931
H	0.0261550	-1.6061258	-1.3116690
C	0.0083286	-2.2673206	0.7207165
H	0.0186153	-3.3262908	0.4818648
H	-0.0053113	-1.9915197	1.7687291
O	0.0007058	-0.0102860	-0.0567344
H	-0.0112018	0.1632457	0.9004155
C	2.9504294	0.0140152	0.1038906
H	3.2454595	-0.5683004	-0.7835761
H	2.5921854	1.0363717	-0.0966195
O	3.0162891	-0.4444856	1.2375476
