11
-0.00243945 (energy)
C	0.9489091	-0.9825518	0.2239071
H	1.9614539	-0.6039318	0.2979341
C	0.6245679	-2.2710982	0.3350704
H	1.3959963	-3.0144871	0.5106983
H	-0.3981268	-2.6211174	0.2565548
O	0.0528536	0.0227866	0.0035159
H	-0.8388240	-0.3616400	-0.0557993
C	5.0749969	0.9998908	0.4417424
H	4.8736630	0.9208673	-0.6385128
H	6.0462492	1.4438893	0.7124642
O	4.2727660	0.6196006	1.2852730
