11
-0.00239678 (energy)
C	-0.1804889	-0.4215385	1.3060244
H	0.2746547	0.2298139	2.0426821
C	-0.8560970	-1.5308749	1.6074092
H	-0.9776866	-1.8308301	2.6436604
H	-1.3010959	-2.1637603	0.8484529
O	0.0251292	0.0363330	0.0370611
H	-0.3988183	-0.5766310	-0.5881865
C	3.6880487	0.0796014	-0.1218975
H	3.5166861	0.7619935	-0.9696635
H	2.7803279	-0.3354146	0.3445363
O	4.8124268	-0.1990112	0.2754535
