11
-0.00233449 (energy)
C	-0.0090124	0.0226307	-0.0803400
H	0.1073093	-0.2694603	0.9565941
C	-0.6659531	-0.6987848	-0.9891276
H	-1.1251208	-1.6417515	-0.7088550
H	-0.7662395	-0.3811481	-2.0204530
O	0.5996415	1.2169780	-0.3358158
H	0.4701451	1.4385866	-1.2741715
C	4.4527049	0.7411145	-0.6149499
H	4.8394789	1.3208914	-1.4681767
H	3.3625500	0.7893158	-0.4633098
O	5.1856012	0.0867664	0.1160976
