11
-0.00221349 (energy)
C	-0.0810602	0.0177905	0.0126736
H	0.9651702	-0.2118283	-0.1509025
C	-0.9395715	0.3194712	-0.9619307
H	-0.6051403	0.3461939	-1.9944110
H	-1.9817632	0.5450633	-0.7682108
O	-0.4059163	-0.0409736	1.3367613
H	-1.3501238	0.1712206	1.4359422
C	4.8877482	0.0353345	0.4572298
H	5.5846494	0.8485342	0.1988381
H	5.2829331	-0.7273854	1.1470436
O	3.7498116	-0.0172771	0.0077065
