11
-0.00414957 (energy)
C	-1.2357692	0.6108928	-0.1251208
H	-1.5511339	0.7536120	-1.1518907
C	-1.9553809	0.9816287	0.9344170
H	-2.9210749	1.4585006	0.7980276
H	-1.6140774	0.8259233	1.9512013
O	-0.0143369	0.0063703	-0.0554884
H	0.2275367	-0.1011015	0.8806408
C	3.0387458	-0.0620749	0.1012484
H	3.2135705	0.9622450	-0.2647250
H	2.6106285	-0.7622667	-0.6337366
O	3.3026687	-0.3998262	1.2484221
