11
-0.00381426 (energy)
C	0.5477339	0.8155798	-1.0174352
H	0.3393699	1.8737201	-1.1223327
C	0.0321361	0.0454303	-0.0588241
H	-0.6413930	0.4704184	0.6789546
H	0.2587537	-1.0113491	0.0214538
O	1.4008426	0.3743351	-1.9868173
H	1.5589049	-0.5763337	-1.8540156
C	3.3427125	-0.3952034	0.3164470
H	4.3015318	-0.0545233	-0.1058491
H	2.7014345	0.3957039	0.7371416
O	3.0118252	-1.5742919	0.3181209
