11
0 (energy)
C	-0.3990288	-1.2995898	-0.3901274
H	-1.1848002	-1.8633759	0.0985327
C	-0.0217528	-0.0743767	-0.0234911
H	-0.5094017	0.4195216	0.8112764
H	0.7684083	0.4660695	-0.5315718
O	0.1521415	-2.0002273	-1.4233318
H	0.8495919	-1.4580911	-1.8308148
C	3.6682764	-0.5988714	1.0823761
H	3.5095040	-1.0078384	0.0717977
H	3.1343986	0.3389235	1.3043469
O	4.3899997	-1.1498895	1.9041021
