11
0 (energy)
C	0.8142637	-0.6841184	-0.9323699
H	1.8314424	-0.9985556	-0.7309825
C	0.0454265	-0.0391213	-0.0544322
H	0.4287686	0.2024513	0.9321099
H	-0.9696545	0.2633592	-0.2839944
O	0.4228287	-1.0308605	-2.1928229
H	-0.4922935	-0.7301922	-2.3289881
C	4.5120035	-0.6330271	-2.4968223
H	3.9467721	0.3081574	-2.4050813
H	5.5509184	-0.6004670	-2.1316489
O	4.0184478	-1.6476594	-2.9729136
