11
0 (energy)
C	-0.0022144	0.0333844	0.0769965
H	0.0263662	-0.3975027	-0.9167840
C	-0.7672222	-0.4265430	1.0675197
H	-1.4136116	-1.2834041	0.9045974
H	-0.7751135	0.0252612	2.0526052
O	0.8404574	1.1013401	0.1845513
H	0.7822510	1.4546785	1.0890705
C	1.9962834	-3.2519444	0.5034811
H	1.8085167	-4.0639784	-0.2169881
H	2.1658718	-2.2563741	0.0632137
O	2.0152256	-3.4431694	1.7129492
