11
0 (energy)
C	-0.7833700	-0.6415260	-0.9437937
H	-0.2756640	-0.8221718	-1.8838372
C	-2.0450053	-0.9958271	-0.6975142
H	-2.6297058	-1.4978058	-1.4621818
H	-2.5272997	-0.8019282	0.2534737
O	0.0293482	-0.0083630	-0.0489268
H	-0.4657769	0.1327270	0.7765038
C	1.5020998	-3.1741106	2.0379435
H	0.8368235	-2.4623223	1.5236516
H	2.2527495	-3.6679881	1.4004751
O	1.4131566	-3.4011784	3.2380552
