11
0.00196179 (energy)
C	0.1827941	0.9512331	-1.0305819
H	-0.4023897	0.9754803	-1.9422025
C	0.0116371	0.0551269	-0.0581594
H	-0.7511990	-0.7116807	-0.1512231
H	0.6126378	0.0552938	0.8437169
O	1.1124493	1.9498764	-1.0051707
H	1.6121012	1.8897213	-0.1726323
C	4.2033213	0.4182978	-1.1525345
H	5.1155878	0.8612474	-0.7220733
H	3.6572081	-0.2768348	-0.4950340
O	3.8217821	0.6810595	-2.2861672
