11
0.00294718 (energy)
C	1.1525058	0.3069084	0.7025015
H	1.1978679	1.3353927	1.0404991
C	2.1067818	-0.5959160	0.9309130
H	2.9977545	-0.3192024	1.4860445
H	2.0340778	-1.6187959	0.5801801
O	-0.0001416	0.0551703	0.0167721
H	0.0022477	-0.8755932	-0.2661846
C	-0.6196044	3.6283314	0.3275549
H	0.3293317	4.1734671	0.2007536
H	-1.1787360	3.8564257	1.2490215
O	-1.0257879	2.8226392	-0.5004632
