11
0 (energy)
C	-0.0748769	0.0005770	0.0379605
H	0.8915461	-0.0068702	-0.4519897
C	-1.0428812	0.8758525	-0.2354749
H	-0.8886418	1.6418023	-0.9892023
H	-2.0007165	0.8591499	0.2713338
O	-0.1740178	-0.9951935	0.9657565
H	-1.0538428	-0.9504864	1.3784309
C	3.2065818	1.1371940	-3.0228445
H	4.1082381	1.2079662	-3.6519221
H	3.3411211	0.6265269	-2.0559556
O	2.1268793	1.5955531	-3.3748223
