11
0 (energy)
C	0.0308178	-0.0747831	-0.0224861
H	-0.3669423	0.8904301	0.2677386
C	-0.6758156	-1.2054976	-0.0147000
H	-1.7161427	-1.1963561	0.2954766
H	-0.2509188	-2.1575860	-0.3106275
O	1.3405709	0.0144358	-0.3950177
H	1.6544156	-0.8714592	-0.6461802
C	4.7085957	0.6461244	-0.0167296
H	4.2365930	0.7507239	-1.0066810
H	4.0139051	0.5757352	0.8354477
O	5.9242660	0.6104741	0.1268445
