31
-0.00123507 (energy)
C	-2.1269029	-1.5039983	3.5805069
O	-1.2262141	-0.7731958	3.9665224
O	-3.2048922	-1.7706626	4.4191464
H	-3.8779577	-2.3520650	4.0090759
N	-1.2132358	-1.7741449	1.2544808
C	-0.0644631	-0.0295964	0.0407247
H	0.8396030	-0.6099269	-0.0925581
H	-0.0720517	0.9623265	-0.3923434
C	-1.1357145	-0.4737351	0.7358598
C	-2.3499906	0.4040815	0.9491317
H	-2.4863260	0.6595668	2.0063805
H	-2.2307011	1.3397648	0.3990272
H	-3.2696975	-0.0791240	0.5936993
C	-0.9469679	-4.1123273	1.2508546
C	-0.2100894	-2.7999990	0.9402206
C	-2.1924107	-2.2307419	2.2311902
C	-1.8433372	-3.7447127	2.4515469
H	-1.5599658	-4.4066698	0.3914538
H	-0.2666762	-4.9371911	1.4822199
H	0.0791210	-2.7190363	-0.1128192
H	0.6995421	-2.6865571	1.5507222
H	-3.2188034	-2.1230002	1.8434303
H	-1.2833759	-3.8623055	3.3863122
H	-2.7419372	-4.3652170	2.5204094
C	3.0515748	2.8322112	1.5556358
H	2.9327603	2.4663255	2.5932261
O	3.1721180	4.0425553	1.3352979
C	3.0524135	1.7701254	0.4921269
H	2.1137734	1.2010490	0.5260930
H	3.1741548	2.2187330	-0.4960568
H	3.8641950	1.0535574	0.6747587
