31
-0.00290003 (energy)
C	2.4932093	0.2100655	0.0524965
O	3.4250705	1.0178154	0.0566688
O	2.5765011	-1.0084840	-0.5877796
H	3.4375906	-1.0875445	-1.0531251
N	0.0000000	0.0000000	0.0000000
C	0.3396268	1.7259278	-1.6646512
H	1.2158463	2.1453856	-1.1872687
H	0.0096877	2.2099883	-2.5748729
C	-1.5560378	0.1195757	-1.9093534
H	-2.4649997	0.2018379	-1.2992572
H	-1.7194996	0.6821254	-2.8306920
H	-1.4333111	-0.9379711	-2.1748363
C	-0.3008214	-1.1460712	2.0261590
C	-0.6405501	-1.2152480	0.5281922
C	1.1685877	0.3884247	0.7861111
C	1.1193859	-0.5371704	2.0461662
H	-1.0090739	-0.4824365	2.5351892
H	-0.3389798	-2.1251651	2.5131541
H	-1.7178449	-1.2017400	0.3478510
H	-0.2265694	-2.1280187	0.0708556
H	1.1174458	1.4501816	1.0561363
H	1.8679304	-1.3309958	1.9551222
H	1.3323871	0.0233697	2.9598094
C	-0.3424669	0.6588235	-1.1839112
C	-4.9549286	0.0929921	-0.3946378
H	-4.7538651	0.3425618	-1.4538221
O	-4.0157718	-0.0913508	0.3876756
C	-6.4067993	0.0038306	-0.0162203
H	-6.9099207	-0.7581288	-0.6264118
H	-6.5114725	-0.2453206	1.0418648
H	-6.9099871	0.9578400	-0.2223303
