31
-0.00409352 (energy)
C	3.2970513	-0.9834553	-1.0514868
O	4.4296095	-0.6744718	-1.4292217
O	2.6042698	-2.0467723	-1.5910833
H	3.1227118	-2.4532922	-2.3192533
N	1.1223330	-0.0653343	-0.2204450
C	1.6042268	1.4826151	-2.0195748
H	2.6792561	1.4248193	-1.9074546
H	1.2361514	2.1464994	-2.7912328
C	-0.7639470	0.9093273	-1.4747036
H	-1.2711538	1.3261077	-0.5947994
H	-0.9630739	1.5708113	-2.3201822
H	-1.2243697	-0.0632858	-1.6891401
C	1.0544188	-1.1473112	1.8613827
C	0.2309927	-0.9169995	0.5834815
C	2.5308826	-0.3091604	0.0811813
C	2.5078733	-1.2328271	1.3434001
H	0.9379045	-0.2908037	2.5351510
H	0.7527516	-2.0502699	2.4007414
H	-0.7160411	-0.4122928	0.7876080
H	0.0106058	-1.8708058	0.0781397
H	3.0539702	0.6351787	0.2747265
H	2.7424222	-2.2629285	1.0559200
H	3.2459139	-0.9133509	2.0833660
C	0.7283321	0.7859730	-1.2563104
C	5.2000117	2.8871465	0.9155293
H	4.8103875	3.3544805	-0.0087946
O	4.7048321	1.8347133	1.3340908
C	6.3326294	3.6175635	1.5809212
H	6.0215766	4.6374948	1.8436628
H	6.6527068	3.0881099	2.4808135
H	7.1791658	3.7130394	0.8880477
