31
-0.00405938 (energy)
C	-1.9883244	-0.0774880	-2.9973184
O	-2.2743633	0.4020103	-4.0969118
O	-2.9482027	-0.5451899	-2.1245972
H	-3.8449014	-0.3885435	-2.4929249
N	-0.4025542	0.0916503	-1.0686657
C	-0.8636228	2.4339066	-1.4766948
H	-1.0023016	2.3175628	-2.5438554
H	-0.9615974	3.4384838	-1.0856658
C	-0.4042435	1.6445065	0.8470110
H	0.6114688	1.3981872	1.1829448
H	-0.5887658	2.6946959	1.0817459
H	-1.1017499	1.0372789	1.4375257
C	0.4948677	-2.0753653	-1.1579432
C	-0.1804104	-1.0775170	-0.2027448
C	-0.5739448	-0.2890132	-2.4687235
C	-0.2024249	-1.8079216	-2.5108682
H	1.5655837	-1.8523325	-1.2284276
H	0.3825543	-3.1137648	-0.8318183
H	0.4575252	-0.8220992	0.6464132
H	-1.1271544	-1.4833475	0.1879784
H	0.0790215	0.3099839	-3.1150163
H	-1.1121079	-2.4122363	-2.5886336
H	0.4298864	-2.0388297	-3.3717877
C	-0.5767037	1.4096309	-0.6378795
C	2.9631966	1.4568553	-0.5864161
H	2.1410783	2.1598680	-0.3530120
O	2.7874682	0.2384730	-0.4738283
C	4.2503297	2.0927587	-1.0313806
H	4.6223357	2.7751339	-0.2554795
H	5.0022883	1.3286723	-1.2394841
H	4.0807880	2.6985966	-1.9313969
