31
-0.00627915 (energy)
C	-1.2312352	2.1781417	0.3129371
O	-1.1756366	3.2718986	0.8724219
O	-1.8003935	2.0680108	-0.9276293
H	-1.8468570	1.1418732	-1.2795433
N	0.0000000	0.0000000	0.0000000
C	-2.0157118	-0.9365807	-0.9732956
H	-2.6951011	-0.4924644	-0.2546525
H	-2.4608666	-1.5990985	-1.7031373
C	0.2195437	-1.5818850	-1.8765596
H	0.8231376	-2.3381273	-1.3592038
H	-0.3987466	-2.0977583	-2.6132313
H	0.9082991	-0.9175019	-2.4108354
C	1.5937755	0.3308106	1.7065413
C	1.4619834	0.0866182	0.1927585
C	-0.6968358	0.8767645	0.9622011
C	0.3569999	1.1915153	2.0608970
H	1.5615001	-0.6287498	2.2351045
H	2.5330354	0.8278540	1.9667745
H	1.9553526	-0.8320344	-0.1282470
H	1.8896284	0.9226777	-0.3817768
H	-1.5608379	0.3421519	1.3826276
H	0.5844696	2.2600735	2.0410402
H	-0.0286312	0.9621634	3.0574788
C	-0.6571895	-0.8198795	-0.9058044
C	0.4316901	3.0761769	-2.8423347
H	-0.0250417	3.2071198	-1.8429184
O	1.4073064	2.3306338	-2.9849897
C	-0.2149727	3.8526421	-3.9549924
H	-0.1905150	4.9271462	-3.7294049
H	0.2976123	3.6643478	-4.9007083
H	-1.2726789	3.5720006	-4.0461580
