31
-0.0023937 (energy)
C	-1.3982379	-0.2008832	-2.8444138
O	-2.5841068	0.0746804	-2.7195727
O	-0.5468217	0.6851439	-3.4872363
H	0.3852883	0.3862202	-3.4897725
N	-1.1821263	-1.9255874	-1.0570654
C	-0.0441967	-0.0694754	0.0014742
H	0.2935930	0.3750060	-0.9255280
H	0.2326496	0.4522256	0.9079748
C	-0.8076959	-1.1861947	0.0676893
C	-1.2905205	-1.7191952	1.3986068
H	-0.8886287	-2.7186829	1.6092775
H	-0.9727837	-1.0537638	2.2035667
H	-2.3847081	-1.7899047	1.4304032
C	-1.6202487	-3.8426043	-2.3443994
C	-2.0526748	-3.1152487	-1.0609983
C	-0.7729858	-1.5380081	-2.4015909
C	-1.3045498	-2.6865257	-3.3179475
H	-0.7213339	-4.4386694	-2.1491278
H	-2.3955378	-4.5096392	-2.7327114
H	-1.8921933	-3.7227245	-0.1675530
H	-3.1167976	-2.8376340	-1.1022151
H	0.3263759	-1.4607781	-2.4443879
H	-2.2228970	-2.3562718	-3.8144947
H	-0.5790313	-2.9600229	-4.0888471
C	2.4921644	-2.1438405	3.3440932
H	3.3325088	-2.6535975	3.8525731
O	1.3276533	-2.4889105	3.5739907
C	2.8819508	-1.0461815	2.3942041
H	3.5393382	-1.4423374	1.6087430
H	1.9944115	-0.6006714	1.9399226
H	3.4527969	-0.2726538	2.9248668
