31
-0.00390666 (energy)
C	1.5295440	0.3378296	2.6989623
O	1.7528903	-0.5126554	3.5556777
O	0.6485966	1.3709086	2.9107371
H	0.5802319	1.9040806	2.0807802
N	1.5412263	1.1982724	0.3438898
C	-0.1692760	1.3955885	-1.3666093
H	0.2278433	2.3220319	-1.7615737
H	-1.0669373	1.0155805	-1.8372530
C	0.3743379	0.7363142	-0.3203062
C	-0.2638743	-0.5219280	0.2279969
H	-0.6068146	-0.3911120	1.2612064
H	-1.1331267	-0.7861300	-0.3773568
H	0.4246699	-1.3754186	0.2152613
C	3.8607878	1.7692465	0.1456680
C	2.4525873	2.1512062	-0.3476157
C	2.2621945	0.3923802	1.3569560
C	3.6116059	1.1446997	1.5304529
H	4.3051891	1.0275243	-0.5286300
H	4.5366168	2.6282100	0.1891341
H	2.3521047	2.0347535	-1.4322613
H	2.1957351	3.1888460	-0.0973738
H	2.4388586	-0.6398587	1.0331740
H	3.5018247	1.9298872	2.2883885
H	4.4031723	0.4686626	1.8604375
C	4.9474188	-2.8506541	1.2551795
H	5.7877631	-2.3408970	0.7466994
O	3.7829077	-2.5055842	1.0252821
C	5.3372053	-3.9483131	2.2050686
H	5.9945929	-3.5521571	2.9905296
H	4.4496662	-4.3938231	2.6593503
H	5.9080515	-4.7218407	1.6744059
