31
-0.00356923 (energy)
C	1.2138169	-2.6858003	1.0252591
O	1.1970608	-3.1390121	2.1660868
O	2.3698696	-2.2275468	0.4406950
H	2.1502480	-1.8613706	-0.4511883
N	0.1245710	-1.7024341	-1.0078172
C	-0.0451067	0.5563238	-1.8794712
H	0.0100325	0.2407084	-2.9135623
H	-0.1200469	1.6216993	-1.7032139
C	0.0102199	-0.2977939	-0.8343248
C	-0.0073484	0.2093682	0.5917195
H	0.9223887	-0.0272077	1.1226277
H	-0.1213958	1.2951146	0.5935619
H	-0.8351825	-0.2150379	1.1724705
C	-0.8488683	-3.6885876	-1.9315485
C	-0.2593937	-2.3165350	-2.3086987
C	-0.0124472	-2.6646621	0.1106211
C	-0.1532586	-4.0383841	-0.6035616
H	-1.9313024	-3.6018938	-1.7794215
H	-0.6797871	-4.4438383	-2.7045040
H	-0.9935472	-1.6792700	-2.8136999
H	0.6126698	-2.4101931	-2.9690198
H	-0.8901977	-2.4676571	0.7369639
H	0.8415477	-4.4593241	-0.7938447
H	-0.7064552	-4.7507445	0.0120757
C	3.9822753	0.4420998	0.4889886
H	3.7721824	0.2429598	1.5570649
O	3.1153853	0.2228241	-0.3644937
C	5.3541446	0.9780791	0.1893571
H	6.1198103	0.2736964	0.5409931
H	5.4735845	1.1447567	-0.8832702
H	5.5178941	1.9198735	0.7297484
