31
-0.00351277 (energy)
C	-0.7260495	-2.0932982	0.7679563
O	-0.7950185	-3.3150259	0.6035462
O	-1.3553548	-1.4582551	1.8193077
H	-1.8617264	-2.1056696	2.3566799
C	-2.9819728	0.6411783	-1.5174545
H	-3.0270799	1.5384196	-0.9127010
H	-3.7990127	0.4786343	-2.2090748
C	-1.9682060	-0.2504070	-1.4399229
C	-1.9604531	-1.5139250	-2.2762262
H	-1.9499982	-2.4237123	-1.6646790
H	-2.8505996	-1.5473955	-2.9080386
H	-1.0774504	-1.5493687	-2.9275173
C	0.9326668	1.1305815	0.3576567
C	-0.5670706	1.2327058	0.0369310
N	-0.8342739	-0.0396913	-0.6430481
C	0.0247345	-1.1175703	-0.1301898
C	1.1481478	-0.3716871	0.6636637
H	1.5172198	1.4295585	-0.5193665
H	1.2290349	1.7669083	1.1968531
H	-0.8022697	2.0620033	-0.6376259
H	-1.1720588	1.3495630	0.9500035
H	0.4335260	-1.7193536	-0.9468739
H	1.0337813	-0.5589468	1.7350068
H	2.1391615	-0.7235327	0.3650225
C	3.6588104	-3.3188023	1.0742130
H	3.6223904	-2.9299453	2.1096099
O	3.5082195	-2.5501675	0.1178998
C	3.8970137	-4.7973978	0.9473567
H	3.1079474	-5.3532701	1.4712148
H	3.9178543	-5.0924514	-0.1038739
H	4.8472235	-5.0691930	1.4259401
