31
-0.000357858 (energy)
C	1.4974429	0.7882490	-2.7615905
O	2.2505539	0.5762621	-3.7167482
O	1.5855114	1.9386035	-2.0039955
H	2.3214975	2.5033542	-2.3273980
N	0.4975238	-0.4910373	-0.8617366
C	-1.2158178	1.1740923	-1.0114877
C	-0.3941414	0.3215384	-0.0180495
C	1.6099591	-1.4956307	1.0295372
H	1.0546340	-0.9201495	1.7588899
H	2.3237837	-2.2115453	1.4164588
C	1.4401410	-1.3625793	-0.3069579
C	2.2377750	-2.1984233	-1.2860689
H	2.7982085	-1.5850088	-2.0014848
H	2.9526356	-2.8216072	-0.7450800
H	1.5858163	-2.8626428	-1.8689357
C	0.3958354	-0.1533055	-2.2821304
C	-1.0125418	0.4870339	-2.3818419
H	-2.2730948	1.2224513	-0.7342611
H	-0.8250683	2.1941822	-1.0428148
H	-1.0238099	-0.3420767	0.5916786
H	0.1837428	0.9529031	0.6706462
H	0.4776078	-1.0410332	-2.9134470
H	-1.1032859	1.1795931	-3.2238660
H	-1.7421188	-0.3174798	-2.5262733
C	-0.6881700	-4.1354691	4.1016494
H	-1.5102883	-3.4324563	4.3350536
O	-0.8638985	-5.3538514	4.2142372
C	0.5989630	-3.4995658	3.6566847
H	0.9709692	-2.8171906	4.4325858
H	1.3509216	-4.2636521	3.4485811
H	0.4294213	-2.8937278	2.7566685
