31
-0.00304267 (energy)
C	2.0265839	-2.5056207	0.7935133
O	1.8775877	-3.3743166	-0.0711302
O	1.8233791	-2.7670653	2.1334298
H	1.5348333	-3.6978303	2.2584340
N	1.5143683	-0.0787207	1.0995332
C	3.3792124	-0.1631428	2.5981494
C	1.9783526	0.4559652	2.3902631
C	-0.6391876	0.9979020	1.2629883
H	-0.4429135	1.4120978	2.2435180
H	-1.5952488	1.2386445	0.8160236
C	0.2459729	0.2227377	0.5933831
C	-0.0748322	-0.3261705	-0.7811341
H	0.0004196	-1.4191850	-0.8240221
H	-1.0921756	-0.0478452	-1.0632693
H	0.6073933	0.0761957	-1.5418188
C	2.4380165	-1.0598140	0.5283488
C	3.7849370	-0.6961066	1.2043854
H	4.0987998	0.5678918	2.9786890
H	3.3223513	-0.9884235	3.3122422
H	2.0038492	1.5539891	2.3420018
H	1.2916280	0.1770095	3.2011060
H	2.4985244	-0.9699382	-0.5586513
H	4.4744149	-1.5439440	1.2560500
H	4.2617874	0.0910993	0.6099899
C	4.7259502	1.0976214	-2.2492736
H	4.8261047	2.0382837	-1.6750728
O	3.8690326	0.2655180	-1.9309839
C	5.6835801	0.9357878	-3.3963712
H	6.7189729	0.9811909	-3.0331258
H	5.5141997	-0.0159405	-3.9044069
H	5.5614794	1.7617749	-4.1095683
