31
-0.00350546 (energy)
C	1.3642359	-2.7702017	0.3747415
O	1.0817556	-3.1581525	1.5012630
O	0.9431253	-3.4993747	-0.7289716
H	1.2014174	-3.0903078	-1.5798188
N	1.7453338	-0.3410335	0.8229180
C	-0.0547451	1.0313336	1.6694435
H	0.4608127	1.2730137	2.5901869
H	-1.0286496	1.4812856	1.5251966
C	0.4555782	0.2004091	0.7334374
C	-0.3218411	-0.1433425	-0.5199545
H	-0.5511317	-1.2138965	-0.5916617
H	-1.2732916	0.3921736	-0.5257338
H	0.2320387	0.1422401	-1.4245092
C	4.0428275	-0.4232998	1.3012234
C	2.7015718	0.0745571	1.8587246
C	2.2067915	-1.5167723	0.0795806
C	3.6654249	-1.7437876	0.5961155
H	4.4388800	0.3009359	0.5803071
H	4.7954409	-0.5753456	2.0803947
H	2.6663713	1.1629893	1.9732209
H	2.4709857	-0.3798810	2.8347578
H	2.2021221	-1.3176080	-1.0033703
H	3.6633697	-2.5641751	1.3208859
H	4.3461673	-2.0080000	-0.2178698
C	0.8133183	0.4762953	5.1649625
H	0.4875920	-0.3859093	4.5525178
O	1.4705084	1.3884468	4.6510628
C	0.4011042	0.4349965	6.6097642
H	0.7994036	-0.4685697	7.0903602
H	0.7631873	1.3206978	7.1360777
H	-0.6927558	0.3800286	6.6888978
