31
-0.00176655 (energy)
C	-2.4537829	-1.5396428	1.4970516
O	-2.1216265	-2.6498546	1.0811756
O	-2.8253682	-1.3232909	2.8123513
H	-2.7882699	-2.1625255	3.3214066
N	-1.8472430	-0.3011509	-0.5748812
C	0.1448612	-0.2799336	-1.9374101
H	-0.3872999	-0.4898599	-2.8562872
H	1.2176602	-0.1591095	-2.0145872
C	-0.4649820	-0.1716016	-0.7338942
C	0.3284465	0.1217028	0.5207963
H	0.2141009	-0.6720018	1.2697875
H	1.3903993	0.1997108	0.2794075
H	0.0212042	1.0664281	0.9881257
C	-4.1203555	-0.8115219	-1.0757154
C	-2.7267123	-0.6248369	-1.7110653
C	-2.5625509	-0.2471836	0.6920706
C	-4.0361421	-0.0215934	0.2482072
H	-4.9250109	-0.4538867	-1.7245188
H	-4.3004836	-1.8723285	-0.8698719
H	-2.7106325	0.1950405	-2.4448858
H	-2.3819946	-1.5330760	-2.2219107
H	-2.2183946	0.5695237	1.3326683
H	-4.7560581	-0.3496199	1.0025368
H	-4.1857112	1.0495390	0.0737511
C	3.3745147	1.4367559	-2.2414054
H	3.2874158	0.4774361	-2.7861091
O	3.2941524	1.4586427	-1.0080867
C	3.5892109	2.6507471	-3.1011781
H	2.7604993	2.7603556	-3.8134069
H	3.6635767	3.5483014	-2.4835676
H	4.5049945	2.5350268	-3.6959576
