31
-0.00438008 (energy)
C	0.6072728	-1.6667177	3.0397475
O	0.9843435	-2.4122925	3.9425360
O	-0.5053878	-1.9823256	2.3049351
H	-0.7047890	-1.3456416	1.5735290
N	0.4151605	0.7404785	2.3544927
C	-0.0142056	0.0456765	0.0670868
H	0.6965046	-0.7727846	0.0685281
H	-0.5273604	0.2289225	-0.8673194
C	-0.1908656	0.9007280	1.1150342
C	-1.1272394	2.0832840	0.9909983
H	-0.5983188	3.0293496	1.1587384
H	-1.5648942	2.1143202	-0.0082232
H	-1.9439729	2.0307284	1.7207304
C	1.1711804	1.0876883	4.5853195
C	0.3609012	1.7408453	3.4486268
C	1.3485948	-0.3614804	2.6629846
C	2.1727066	0.1744292	3.8477629
H	1.6612504	1.8316209	5.2193740
H	0.5163823	0.4815315	5.2216403
H	0.8202100	2.6881898	3.1304372
H	-0.6714871	1.9507505	3.7472398
H	1.9868191	-0.5740872	1.7934712
H	2.5461912	-0.6411242	4.4684487
H	3.0221410	0.7552027	3.4713331
C	3.4430463	-2.3237025	-1.2869186
H	4.1961522	-1.9370369	-1.9995925
O	2.7421245	-1.5381556	-0.6391247
C	3.3575563	-3.8209177	-1.1863403
H	4.3284501	-4.2350225	-0.8831416
H	2.5923576	-4.1124567	-0.4638081
H	3.1216931	-4.2524472	-2.1681571
