31
-0.00909411 (energy)
C	-0.4719621	0.0665887	-0.1133086
O	-0.2476806	0.4366463	1.0401571
O	0.5152638	-0.4559703	-0.9268954
H	1.3728334	-0.4861749	-0.4483994
N	-2.9385053	-0.0704655	0.0136161
C	-2.5490322	-2.4581661	0.1154434
H	-1.6447315	-2.4266910	-0.4797403
H	-2.8643493	-3.4338192	0.4619734
C	-3.2689431	-1.3583688	0.4427793
C	-4.5063468	-1.4597542	1.3069486
H	-5.3881787	-1.0417665	0.8051102
H	-4.7143986	-2.5053962	1.5423188
H	-4.3821105	-0.9198569	2.2541511
C	-2.7427283	2.2915461	-0.1472948
C	-3.6384447	1.1676720	0.4127681
C	-1.7996090	0.1744738	-0.8590449
C	-2.0269969	1.6322502	-1.3452006
H	-3.3189986	3.1750921	-0.4372429
H	-2.0082565	2.5928069	0.6063966
H	-4.6484535	1.2092351	-0.0222029
H	-3.7390748	1.2408157	1.5011068
H	-1.7782670	-0.5334967	-1.6937051
H	-1.0967270	2.1355834	-1.6238884
H	-2.6770479	1.6097711	-2.2271476
C	3.2848737	-2.0035828	0.7537756
H	2.2434658	-2.3292580	0.9381340
O	3.5102280	-0.8779048	0.2954344
C	4.3469579	-3.0102974	1.0966764
H	4.1926917	-3.9327967	0.5211385
H	5.3391702	-2.6066470	0.8841728
H	4.2792995	-3.2839026	2.1579850
