31
-0.00653055 (energy)
C	-0.3602658	-1.5655034	2.0095957
O	-1.2598948	-2.3829445	2.1913868
O	0.9371576	-1.8066715	2.3750808
H	1.4685258	-1.0078182	2.1157547
N	0.6528601	0.6138012	1.3151653
C	1.7106008	2.6706369	2.0555484
H	2.1800525	2.8619151	1.0993430
H	1.9293761	3.3734770	2.8494845
C	0.9093055	1.6117576	2.2945046
C	0.2861534	1.3790182	3.6538238
H	0.5172018	0.3781759	4.0381153
H	0.6663530	2.1121423	4.3680800
H	-0.8065572	1.4767166	3.6318923
C	0.4208100	-0.2782180	-0.8811243
C	1.1270448	0.8242390	-0.0777729
C	-0.5926937	-0.2063954	1.3254618
C	-0.9447459	-0.3977889	-0.1741342
H	0.3282879	-0.0223664	-1.9401642
H	0.9743784	-1.2223428	-0.8106921
H	0.8301481	1.8240331	-0.4314391
H	2.2190995	0.7641959	-0.1218217
H	-1.4107578	0.2871137	1.8566289
H	-1.4540074	-1.3484246	-0.3472720
H	-1.6111602	0.4103316	-0.4964756
C	3.4800120	-2.2688895	3.4575821
H	3.5164321	-3.2210322	2.8948382
O	3.6306030	-1.1936329	2.8666865
C	3.2418087	-2.4007156	4.9357429
H	4.0308749	-3.0131412	5.3922034
H	3.2209680	-1.4166910	5.4088580
H	2.2915989	-2.9192249	5.1203038
