31
-0.00113218 (energy)
C	2.4879944	-0.0240979	0.2348613
O	3.3391290	0.3712931	1.0371558
O	2.6662146	0.0819467	-1.1296950
H	3.5222995	0.5213642	-1.3277836
N	0.0000000	0.0000000	0.0000000
C	0.3867849	-1.9644880	-1.3121758
C	-0.4770744	-0.6867775	-1.2115653
C	-1.4651941	1.8907290	-0.3193545
H	-1.8647215	1.5202202	-1.2545663
H	-1.8670660	2.8280218	0.0436451
C	-0.5181729	1.2376768	0.3943918
C	0.0021994	1.7958884	1.7024920
H	1.0907643	1.9270193	1.6987583
H	-0.4530207	2.7689200	1.8975229
H	-0.2421878	1.1350776	2.5448551
C	1.1534488	-0.6632738	0.6095453
C	1.0280986	-2.1173460	0.0866067
H	-0.2077541	-2.8416557	-1.5844405
H	1.1648954	-1.8326138	-2.0680881
H	-1.5489457	-0.9077499	-1.1071670
H	-0.3562146	-0.0494307	-2.0981628
H	1.1093367	-0.6249260	1.7003668
H	1.9880723	-2.6414258	0.0607575
H	0.3623870	-2.6653255	0.7625742
C	3.1323659	4.0718171	0.9662218
H	2.5612945	3.6851516	1.8316408
O	3.6486047	3.2862703	0.1634604
C	3.2165711	5.5690324	0.8645653
H	3.6837573	5.9831372	1.7680591
H	3.7952511	5.8605713	-0.0144747
H	2.2087131	6.0005619	0.8027759
