19
-0.00358171 (energy)
C	1.4688770	-1.9071974	0.6007440
H	2.0614869	-2.7560016	0.2669981
C	0.8040166	-1.1345226	-0.3500408
H	0.8819286	-1.3828391	-1.4049330
C	0.0404635	-0.0469645	0.0569310
H	-0.4817921	0.5591981	-0.6778681
C	-0.0563129	0.2650021	1.4140547
H	-0.6602251	1.1175559	1.7130722
C	0.6079561	-0.4983120	2.3828548
N	0.4684206	-0.1604649	3.7193996
H	0.9522604	-0.6758210	4.4393474
H	-0.0722788	0.6492263	3.9878461
C	2.1112091	-2.4625556	2.9600400
H	2.6588278	-3.2709988	2.4639993
H	1.4055730	-2.9230671	3.6589336
H	2.8401798	-1.8645948	3.5165515
C	1.3777956	-1.6005750	1.9699195
Br	4.6633126	0.1894656	2.3137638
H	4.0758043	-0.0205880	1.0038697
