19
0.00221399 (energy)
C	-1.0307351	2.0620718	0.9172459
H	-1.4285030	3.0568066	0.7292968
C	-0.5435141	1.3177265	-0.1558912
H	-0.5646285	1.7317559	-1.1602132
C	-0.0296633	0.0453820	0.0643790
H	0.3531958	-0.5403562	-0.7665502
C	-0.0042839	-0.4793010	1.3576451
H	0.4038018	-1.4748463	1.5103698
C	-0.4929557	0.2531832	2.4472056
N	-0.4312596	-0.3024326	3.7150572
H	-0.7958708	0.1897093	4.5168506
H	-0.0757572	-1.2386828	3.8457198
C	-1.5450943	2.3811291	3.3505415
H	-1.9071519	3.3516614	2.9948671
H	-0.7590877	2.5728599	4.0880227
H	-2.3857433	1.8738205	3.8349048
C	-1.0098083	1.5419493	2.2233811
Br	3.2182926	-0.9902884	-0.0040188
H	2.8259715	-2.2471622	-0.6134966
