19
-0.00379771 (energy)
C	-0.6522595	1.5833353	-2.2908961
H	-0.9026981	2.1715124	-3.1708788
C	-0.7761861	0.1961926	-2.3503490
H	-1.1181407	-0.2814717	-3.2643692
C	-0.4592831	-0.5726650	-1.2368624
H	-0.5519165	-1.6543388	-1.2757788
C	-0.0190277	0.0478948	-0.0665828
H	0.2265596	-0.5702752	0.7927902
C	0.1079443	1.4407915	0.0121092
N	0.5651174	2.0105169	1.1895507
H	0.6454789	3.0116495	1.2859532
H	0.7654969	1.4320110	1.9927929
C	-0.0905796	3.7163927	-1.0984730
H	-0.3799085	4.1562034	-2.0588783
H	0.9441995	4.0127334	-0.8988236
H	-0.7471846	4.1399495	-0.3315766
C	-0.2100661	2.2175120	-1.1164858
Br	3.5775698	-0.5680631	1.3061646
H	3.0832969	-0.0433053	0.0470242
