19
0.00872622 (energy)
C	1.4620197	1.7001477	1.0620223
H	2.2761374	1.9164822	1.7501015
C	1.0640196	0.3760704	0.8846163
H	1.5641796	-0.4205908	1.4283991
C	0.0245523	0.0797447	0.0110485
H	-0.2923398	-0.9495065	-0.1315526
C	-0.6144149	1.1086553	-0.6828805
H	-1.4268586	0.8574815	-1.3595016
C	-0.2251901	2.4444352	-0.5195658
N	-0.9003262	3.4333216	-1.2168875
H	-0.6292517	4.4020644	-1.1389518
H	-1.6362301	3.1900433	-1.8644061
C	1.2869733	4.1566764	0.5907302
H	2.1120130	4.2029259	1.3095442
H	0.4688272	4.7655529	0.9886646
H	1.6440305	4.5918757	-0.3482970
C	0.8248098	2.7432830	0.3671936
Br	3.5970348	1.1484126	-0.9712502
H	3.7227178	-0.2609912	-0.6504767
