19
0.0130376 (energy)
C	-0.0595494	-0.0142759	0.0578942
H	0.7090451	0.1699806	-0.6893362
C	0.0251330	0.6389225	1.2863966
H	0.8485949	1.3190422	1.4860878
C	-0.9482852	0.4178168	2.2533461
H	-0.8900410	0.9241872	3.2126742
C	-2.0041870	-0.4560755	1.9890409
H	-2.7571133	-0.6140628	2.7565766
C	-2.1031285	-1.1237083	0.7614609
N	-3.1784695	-1.9686110	0.5384274
H	-3.2661683	-2.4817380	-0.3258801
H	-3.8595858	-2.1315404	1.2661318
C	-1.1703066	-1.5783343	-1.5567979
H	-0.3261734	-1.2869271	-2.1908672
H	-2.0891971	-1.3069959	-2.0863836
H	-1.1274883	-2.6650797	-1.4310536
C	-1.1190731	-0.8966370	-0.2174292
Br	0.7743299	-2.2781635	1.8408017
H	1.8756665	-3.2172797	1.7396616
