40
-0.00214705 (energy)
C	0.7857109	-2.2345650	3.2089016
H	0.1338877	-0.3299462	2.6572100
C	0.3829514	-1.3294731	2.3065897
H	1.0907598	-3.2388172	2.9342879
H	0.8392874	-1.9723744	4.2611185
C	0.2938403	-1.5330703	0.8706414
C	-0.0006637	-2.7151390	0.2973087
H	-0.2226630	-3.5701578	0.9288426
O	0.5934917	-0.3992920	0.1370049
C	-0.5725694	0.3803116	-0.1294989
H	-0.2742796	1.2257652	-0.7564326
H	-0.9989601	0.7789587	0.7969089
H	-1.3284163	-0.1959762	-0.6729229
S	-0.0434185	-2.9687141	-1.4210263
C	-0.2548167	-4.7383471	-1.4400044
C	-1.5326186	-5.2922699	-1.5651779
C	-1.6988710	-6.6786957	-1.5823924
H	-2.4053031	-4.6495406	-1.6511372
C	-0.5886465	-7.5160036	-1.4794524
H	-2.6941751	-7.1045991	-1.6797785
C	0.8559643	-5.5830541	-1.3450800
C	0.6885743	-6.9691741	-1.3623286
H	-0.7183396	-8.5952657	-1.4956428
H	1.5552169	-7.6210653	-1.2883583
H	1.8571721	-5.1672539	-1.2590286
C	3.9461517	1.3533041	0.3724031
C	4.3450277	1.8844375	-0.7902116
H	3.4770994	0.3758558	0.4051572
H	4.0785857	1.8807701	1.3136281
H	4.2133128	1.3596264	-1.7283620
C	4.9842598	3.2169077	-0.8352822
O	5.1992270	3.9274733	0.1319803
O	5.2757362	3.4933449	-2.1305976
C	5.9118545	4.7581614	-2.3635360
C	4.8682138	5.8471620	-2.5273501
H	6.4895332	4.6601352	-3.2885301
H	6.6223727	5.0006807	-1.5648258
H	4.1677377	5.5909437	-3.3289802
H	5.3407020	6.8046618	-2.7639780
H	4.2771381	5.9655304	-1.6137059
