40
-0.000905723 (energy)
C	0.2278069	-0.0443424	-0.5781734
H	-1.0498353	0.6475172	0.9204161
C	-0.2060901	0.0006161	0.6888252
H	1.0357932	-0.6942399	-0.8972056
H	-0.2445360	0.5673641	-1.3407230
C	0.3099406	-0.7822713	1.7988432
C	1.5942762	-1.1706830	1.9099642
H	2.3093840	-0.8606248	1.1538818
O	-0.6621835	-1.1396533	2.7157506
C	-0.7897285	-0.1689988	3.7550131
H	-1.5302203	-0.5391739	4.4701751
H	-1.1492127	0.7862840	3.3585716
H	0.1548062	-0.0221238	4.2888706
S	2.1930293	-2.1605084	3.2063220
C	3.8423246	-2.4547807	2.5981451
C	4.9047682	-1.6565787	3.0333047
C	6.1976751	-1.8879379	2.5589868
H	4.7336311	-0.8517026	3.7439063
C	6.4339735	-2.9204773	1.6521765
H	7.0203272	-1.2647244	2.9000975
C	4.0865509	-3.4941173	1.6945369
C	5.3796858	-3.7245192	1.2208675
H	7.4411344	-3.1019192	1.2853048
H	5.5639653	-4.5336481	0.5188314
H	3.2725916	-4.1308917	1.3558625
C	5.1748444	0.7678245	-3.3093649
C	5.1913260	1.8597209	-2.5345306
H	5.9507475	0.5987155	-4.0481914
H	4.3891729	0.0214968	-3.2234638
H	5.9736455	2.6037912	-2.6196025
C	4.1337139	2.0906903	-1.5274378
O	3.1901075	1.3483200	-1.3148242
O	4.4057869	3.2627680	-0.9017956
C	3.4758134	3.6464978	0.1212236
C	2.3183176	4.4173288	-0.4853786
H	4.0185797	4.2891216	0.8222054
H	3.1247965	2.7765149	0.6882391
H	2.6849990	5.2830714	-1.0465915
H	1.6337764	4.7654434	0.2932505
H	1.7581939	3.7948397	-1.1902872
