24
-0.0134814 (energy)
C	-0.3244325	0.2208046	0.5403114
N	0.2129474	-0.1449294	-0.3546435
H	0.3993374	0.4684796	-1.1017978
H	0.5048597	-1.0838621	-0.4040579
N	-0.5665334	-0.6726095	1.5678108
H	-0.2583866	-1.6335936	1.4596281
C	-1.6316530	0.9758972	2.8984150
C	-1.2133602	-0.2936321	2.7315696
H	-1.3510691	-1.0745115	3.4719287
H	-2.1417046	1.3400467	3.7787563
C	-1.6755945	3.2027895	1.7190017
N	-1.3837683	1.8726952	1.8566646
H	-2.1852508	3.7692979	2.4827964
C	-1.1877590	3.5542830	0.4768988
N	-0.6028942	2.4823330	-0.1584367
C	-0.7356904	1.4924801	0.6909354
C	1.7455069	5.2898209	-2.5925362
H	1.8367315	6.1056336	-3.3154258
H	0.7461104	5.3273313	-2.1519201
H	1.9022666	4.3425212	-3.1142763
C	2.7803997	5.4575257	-1.5218707
O	3.6030237	6.3583644	-1.4937101
O	2.7147148	4.4951998	-0.5752795
H	2.0072856	3.8414478	-0.7310028
