24
-0.0121715 (energy)
C	-0.1971378	-2.8589524	0.5104254
N	0.2494473	-3.8508461	0.3099464
H	1.0295417	-3.9281789	-0.2856404
H	-0.1331555	-4.6563606	0.7270922
N	-1.2920325	-2.7933321	1.3527175
H	-1.6571203	-3.6557032	1.7440935
C	-1.4325698	-0.4336060	1.1669655
C	-1.8988544	-1.5912573	1.6738510
H	-2.7502155	-1.6551660	2.3431552
H	-1.8563354	0.5385309	1.3746453
C	0.3712157	0.4651806	-0.3464864
N	-0.3265816	-0.5074446	0.3170977
H	0.1176356	1.5117854	-0.2803121
C	1.3630891	-0.2048456	-1.0332200
N	1.3005027	-1.5625020	-0.8149387
C	0.2809939	-1.7120365	-0.0043106
C	4.7570660	0.3771188	-2.4493213
H	4.6664895	-0.6621784	-2.1205374
H	4.6725069	0.4046576	-3.5385569
H	3.9581840	0.9605559	-1.9850456
C	6.0903787	0.9162607	-2.0285411
O	6.9210415	0.2840207	-1.3966507
O	6.2855822	2.1945266	-2.4214182
H	5.5337515	2.5701839	-2.9171295
