11
-0.00330263 (energy)
C	-0.4185378	-0.4731581	-1.2316324
H	0.2401591	-1.2190188	-1.6604567
C	-1.5336148	-0.0371389	-1.8184859
H	-1.8309696	-0.4311520	-2.7853921
H	-2.1738210	0.7107305	-1.3652641
O	0.0367240	-0.0394443	-0.0205081
H	-0.5828371	0.6260092	0.3254783
C	3.3157214	-0.0905122	-0.0160636
H	3.6178361	-0.2093303	1.0367138
H	2.8775395	0.8860561	-0.2769599
O	3.4574966	-0.9842610	-0.8412010
