11
-0.00310387 (energy)
C	-0.4792874	1.1324909	0.6353886
H	-0.2292325	2.0571016	0.1287844
C	-1.1822409	1.0684736	1.7666112
H	-1.5423278	1.9781308	2.2371800
H	-1.4175129	0.1281510	2.2514031
O	0.0146648	0.0476623	-0.0289541
H	-0.2327402	-0.7564353	0.4595220
C	3.0066911	-0.0873811	0.0237279
H	3.2944539	0.7263209	0.7084271
H	2.9457517	0.1875720	-1.0413745
O	2.7703448	-1.2217445	0.4200849
