11
-0.00280216 (energy)
C	-1.3209327	-0.3630397	-0.1982669
H	-1.5468379	-1.3769497	0.1100079
C	-2.2167047	0.4742037	-0.7222158
H	-3.2446341	0.1547480	-0.8632228
H	-1.9616642	1.4840536	-1.0217827
O	-0.0092850	-0.0542518	0.0171937
H	0.1473592	0.8610147	-0.2728769
C	3.8204027	0.2121306	0.0619529
H	4.5930420	-0.4371661	-0.3798318
H	2.9421211	-0.3087730	0.4755188
O	3.9304664	1.4314582	0.0913660
