11
-0.00268883 (energy)
C	-0.4623406	0.2431076	-1.3143428
H	-1.4845558	0.5085307	-1.5566375
C	-0.0250066	0.0136301	-0.0758011
H	-0.7066567	0.0881502	0.7658484
H	1.0044065	-0.2504414	0.1367021
O	0.3160773	0.1741028	-2.4330460
H	1.2210784	-0.0659317	-2.1689489
C	4.6758678	0.9545243	-0.1951209
H	4.2657249	1.7097266	-0.8844565
H	5.7559198	1.0333464	0.0074393
O	3.9778479	0.0854821	0.3120998
