11
-0.0026501 (energy)
C	-1.1609172	-0.2150331	-0.7224977
H	-1.5530057	-1.2210005	-0.6309761
C	-1.7278651	0.7423500	-1.4572725
H	-2.6387852	0.5373965	-2.0111609
H	-1.3126233	1.7407728	-1.5301345
O	-0.0186736	-0.0541549	0.0066051
H	0.2963636	0.8594780	-0.1048283
C	3.1780771	0.0377346	-0.0756285
H	3.1440314	-1.0487573	0.1035573
H	3.2377898	0.6662096	0.8272610
O	3.1513360	0.5149947	-1.2031243
