11
-0.00264782 (energy)
C	-1.2586309	0.3116459	0.4844543
H	-1.8965721	0.8038774	-0.2399898
C	-1.6310164	0.0233583	1.7319019
H	-2.6268697	0.2829131	2.0775626
H	-0.9706722	-0.4701797	2.4354277
O	-0.0318065	0.0260312	-0.0404451
H	0.5047927	-0.4131347	0.6418931
C	3.9687571	-0.2646256	-0.1963725
H	3.9416514	0.4984057	0.5978440
H	4.6741299	-0.0682616	-1.0195652
O	3.2620238	-1.2643037	-0.1661929
