11
-0.00256619 (energy)
C	-0.0440868	-0.0626347	0.0343675
H	0.5249337	0.7457811	-0.4092084
C	-1.1789882	0.1089714	0.7129370
H	-1.5875822	1.1054894	0.8492326
H	-1.7272716	-0.7194980	1.1460726
O	0.5462854	-1.2724679	-0.1891439
H	0.0035748	-1.9655714	0.2249381
C	3.4554955	-1.1296914	0.5094980
H	3.3246379	-1.2929781	1.5911380
H	3.6110874	-2.0391218	-0.0925678
O	3.4297228	-0.0119471	0.0097756
