11
-0.0022044 (energy)
C	-0.3112209	-1.1813154	-0.6508503
H	-0.6433134	-1.0431484	-1.6729582
C	-0.2048441	-2.3696425	-0.0554771
H	-0.4578554	-3.2757197	-0.5973103
H	0.1305745	-2.4774416	0.9694407
O	-0.0173339	0.0101750	-0.0540472
H	0.2751008	-0.1614842	0.8577675
C	3.1557333	-0.0608389	0.0347404
H	3.0227869	0.3357898	-0.9844466
H	3.3126174	0.6943498	0.8214000
O	3.1307907	-1.2610075	0.2770461
