11
-0.00211654 (energy)
C	-0.0187670	0.0805648	0.0143177
H	0.2234557	-0.9592712	-0.1704779
C	-0.7200958	0.8434125	-0.8247937
H	-1.0869312	0.4310982	-1.7596747
H	-0.9474326	1.8817454	-0.6132152
O	0.4831314	0.5072625	1.2093993
H	0.2425850	1.4417575	1.3328798
C	4.2628720	0.0407072	0.7149581
H	3.2939404	0.1958782	0.2141340
H	4.2665579	0.2075291	1.8039543
O	5.2686480	-0.2948056	0.1021084
