11
-0.00210681 (energy)
C	-0.5224061	-0.3971167	-1.2187539
H	-1.1831430	-1.2533965	-1.1532431
C	-0.2262648	0.2309581	-2.3570547
H	-0.6549711	-0.1086715	-3.2948375
H	0.4387531	1.0860007	-2.3922123
O	-0.0347093	-0.0456124	0.0063133
H	0.5508622	0.7239020	-0.1001972
C	3.4832293	0.1135759	0.0122651
H	3.7782594	0.4869675	1.0058783
H	3.1249852	-0.9278620	-0.0164423
O	3.5490890	0.8096558	-0.9931573
