11
-0.00206535 (energy)
C	-0.2856342	-1.3850859	0.0175310
H	-1.1925294	-1.8208753	-0.3845990
C	-0.0149620	-0.0795617	0.0017283
H	-0.7234260	0.6190913	-0.4324796
H	0.9015762	0.3282364	0.4119004
O	0.5396940	-2.3382987	0.5394619
H	1.3374768	-1.9035890	0.8872564
C	4.9140427	-0.0943882	0.5325626
H	5.0306767	-0.1719951	1.6253137
H	5.7959517	-0.3840251	-0.0608199
O	3.8735857	0.2882688	0.0122149
