11
-0.00183882 (energy)
C	-0.0785984	-0.0146914	-0.0255800
H	0.9358580	0.1749275	0.3045761
C	-0.6718372	-1.2073097	0.0347175
H	-0.1361135	-2.0634114	0.4330437
H	-1.6890160	-1.3674155	-0.3033598
O	-0.6682671	1.1172687	-0.5084362
H	-1.5733459	0.9008269	-0.7919433
C	4.4200162	0.4464898	-1.1144946
H	4.7745994	-0.2398573	-1.8999434
H	4.5591849	1.5192709	-1.3231299
O	3.9055317	0.0438486	-0.0786738
