11
-0.00149657 (energy)
C	-0.0114754	0.0476511	0.0681584
H	0.1366351	-0.5673738	-0.8115505
C	-0.4403145	-0.4194957	1.2410937
H	-0.6646224	-1.4751685	1.3586299
H	-0.5793273	0.2201283	2.1048873
O	0.2954204	1.3545829	-0.1766625
H	0.1483090	1.8671789	0.6369681
C	3.4962954	0.3619092	-1.3610946
H	2.8607405	-0.2508219	-2.0201560
H	3.7137530	1.3794531	-1.7231339
O	3.9319505	-0.0598828	-0.2971233
