19
-0.00450862 (energy)
C	0.0594130	-0.0210127	-0.0559485
H	-0.7074203	0.2501944	0.6661697
C	0.6656726	-1.2722693	0.0433673
H	0.3713306	-1.9591137	0.8321236
C	1.6463594	-1.6377457	-0.8710191
H	2.1225102	-2.6116582	-0.8011006
C	2.0181630	-0.7507358	-1.8826757
H	2.7849652	-1.0554827	-2.5898623
C	1.4220942	0.5119971	-1.9952943
N	1.8117449	1.3517823	-3.0262628
H	1.4184950	2.2761256	-3.1209296
H	2.5440854	1.0727324	-3.6633088
C	-0.2541744	2.2179704	-1.1403417
H	-0.9974290	2.3343114	-0.3443766
H	-0.7752294	2.3301057	-2.0965701
H	0.4788383	3.0231538	-1.0261815
C	0.4275075	0.8793993	-1.0711920
Br	4.6551282	0.4633669	1.5342682
H	3.6933402	0.0446562	0.5318931
