19
-0.00413835 (energy)
C	0.7898007	0.8445980	-2.6160021
H	1.0887048	1.1500850	-3.6161898
C	0.3910252	-0.4744113	-2.4056455
H	0.3816843	-1.1791312	-3.2325745
C	0.0071977	-0.8842340	-1.1343690
H	-0.3035131	-1.9108309	-0.9621151
C	0.0233220	0.0263289	-0.0764991
H	-0.2776909	-0.3134932	0.9108618
C	0.4176955	1.3564883	-0.2704600
N	0.4338346	2.2196380	0.8133642
H	0.6904640	3.1890903	0.7023627
H	0.1269149	1.9040343	1.7223272
C	1.2473685	3.1813464	-1.8301718
H	1.5135061	3.3250665	-2.8828058
H	2.1295037	3.4281264	-1.2306866
H	0.4385788	3.8813943	-1.5968207
C	0.8089252	1.7691466	-1.5568521
Br	3.9439066	-0.4102192	0.4157650
H	2.9348834	-0.5069384	-0.6223238
