19
-0.00202484 (energy)
C	1.5438481	-1.6970988	-2.2116338
H	1.5246544	-2.6302671	-2.7700870
C	2.5775960	-0.7922240	-2.4474817
H	3.3474483	-1.0231491	-3.1785973
C	2.6184257	0.4062758	-1.7450906
H	3.4200163	1.1172353	-1.9242631
C	1.6249868	0.6968231	-0.8085358
H	1.6724542	1.6401930	-0.2711632
C	0.5808510	-0.2023837	-0.5561807
N	-0.3919403	0.1370935	0.3703154
H	-1.1437854	-0.4983677	0.5915299
H	-0.3265532	1.0032916	0.8855284
C	-0.5574065	-2.4187861	-1.0492280
H	-0.4311433	-3.3005951	-1.6864042
H	-1.5308470	-1.9776380	-1.2863933
H	-0.5541857	-2.7611825	-0.0093170
C	0.5389469	-1.4135376	-1.2699751
Br	5.3600229	0.7799285	1.3739007
H	5.0800098	-0.1018739	0.2562569
