19
-0.00154653 (energy)
C	-1.2252030	0.5786027	-0.4815604
H	-1.5897292	1.4457285	0.0645667
C	-0.0420641	-0.0303361	-0.0663093
H	0.5008501	0.3612068	0.7895337
C	0.4389125	-1.1404363	-0.7502398
H	1.3594791	-1.6214014	-0.4318945
C	-0.2648587	-1.6388517	-1.8478562
H	0.1256179	-2.5093170	-2.3682287
C	-1.4535037	-1.0373384	-2.2811922
N	-2.1262531	-1.5778890	-3.3652476
H	-2.9721811	-1.1544651	-3.7161547
H	-1.7433344	-2.3703360	-3.8606466
C	-3.2129140	0.7724355	-1.9977149
H	-3.4391690	1.6248766	-1.3483492
H	-4.0573874	0.0784798	-1.9365965
H	-3.1246300	1.1524872	-3.0206651
C	-1.9408485	0.0841228	-1.5862303
Br	4.3400609	-1.3468000	-0.5872539
H	4.6553066	-0.2437009	0.3009484
