19
-0.001022 (energy)
C	1.9667794	1.2961831	0.7794762
H	2.8559576	1.3368763	1.4045742
C	1.1882782	0.1399492	0.7902670
H	1.4722128	-0.7020985	1.4154596
C	0.0474679	0.0695040	-0.0003096
H	-0.5651924	-0.8275719	0.0036869
C	-0.3119576	1.1559001	-0.7997033
H	-1.2088727	1.0830016	-1.4089638
C	0.4605709	2.3242325	-0.8256755
N	0.0547312	3.3831040	-1.6219468
H	0.6013869	4.2291265	-1.6805244
H	-0.7647794	3.2981766	-2.2060777
C	2.4821827	3.6224283	-0.0016981
H	3.3343963	3.5021980	0.6756494
H	1.9080304	4.4889125	0.3418126
H	2.8820069	3.8210961	-1.0013642
C	1.6131131	2.3954318	-0.0227252
Br	2.8232911	-3.1634615	-0.0041338
H	3.7871633	-2.0840380	0.1002978
