19
-0.00376336 (energy)
C	-2.5673336	-1.7277790	0.7606005
H	-3.4250964	-1.7737908	1.4278091
C	-2.3910707	-2.7407965	-0.1805608
H	-3.1032744	-3.5591982	-0.2398352
C	-1.3021517	-2.6986998	-1.0430602
H	-1.1586647	-3.4836732	-1.7801775
C	-0.3922085	-1.6432720	-0.9621353
H	0.4515132	-1.6263244	-1.6468365
C	-0.5517617	-0.6187385	-0.0201430
N	0.3678734	0.4172374	0.0112912
H	0.2940702	1.1576699	0.6927093
H	1.1643020	0.4123027	-0.6097533
C	-1.8866583	0.4101958	1.8799913
H	-2.7894126	0.2163353	2.4690378
H	-2.0126763	1.3833167	1.3946043
H	-1.0428863	0.4548467	2.5762065
C	-1.6559292	-0.6608677	0.8500244
Br	4.1035295	0.2826649	-0.0438553
H	3.5838832	0.0036560	1.2817512
