11
-0.00513827 (energy)
C	0.0770537	0.0318174	-0.0099125
H	-0.9174658	-0.3788439	0.1180266
C	0.5387977	1.0893861	0.6581050
H	-0.0923311	1.5951092	1.3823247
H	1.5393120	1.4784647	0.5092032
O	0.7927445	-0.6681431	-0.9372933
H	1.6748000	-0.2660314	-1.0189961
C	4.9629635	-1.8561595	-1.4741234
H	4.4585332	-2.5109701	-2.2024807
H	6.0550558	-1.9810521	-1.4000148
O	4.3506453	-1.0437170	-0.7924032
