11
-0.00506546 (energy)
C	0.0770537	-0.0244932	0.0225984
H	-0.9174655	0.2916367	-0.2690753
C	0.5387976	0.0252424	1.2724886
H	-0.0923312	0.3995739	2.0725675
H	1.5393137	-0.2982446	1.5349888
O	0.7927438	-0.4776503	-1.0472751
H	1.6748111	-0.7494308	-0.7398933
C	5.4840780	0.0231870	-0.0040893
H	6.0717284	-0.0019046	-0.9356304
H	6.0717256	0.0482813	0.9274666
O	4.2594397	0.0231870	-0.0040884
