11
-0.00461762 (energy)
C	-1.3162004	0.4026308	0.1465457
H	-1.4251959	1.4156699	0.5152623
C	-2.3409172	-0.3990663	-0.1452482
H	-3.3606578	-0.0490981	-0.0178699
H	-2.2014198	-1.4090175	-0.5128375
O	-0.0029452	0.0541157	0.0196954
H	0.0467428	-0.8588548	-0.3125802
C	3.7045941	-0.7266976	-0.2644963
H	4.7472472	-0.9883851	-0.5055883
H	3.5622617	0.2449074	0.2349845
O	2.7664660	-1.4664063	-0.5337281
