11
-0.00341097 (energy)
C	0.0628148	0.0546473	-0.0107638
H	-0.7479251	-0.6506755	0.1281632
C	0.4392320	0.9479516	0.9047818
H	-0.0752690	1.0005363	1.8592961
H	1.2548577	1.6418245	0.7378154
O	0.6462516	-0.0875360	-1.2361529
H	1.3653035	0.5627643	-1.3165574
C	2.8558213	-2.2704696	-1.6694425
H	3.3303313	-2.5654857	-2.6189356
H	1.9311360	-2.8115028	-1.4125454
O	3.3248842	-1.3993259	-0.9477587
